
                                 *****************
                                 * O   R   C   A *
                                 *****************

                                            #,                                       
                                            ###                                      
                                            ####                                     
                                            #####                                    
                                            ######                                   
                                           ########,                                 
                                     ,,################,,,,,                         
                               ,,#################################,,                 
                          ,,##########################################,,             
                       ,#########################################, ''#####,          
                    ,#############################################,,   '####,        
                  ,##################################################,,,,####,       
                ,###########''''           ''''###############################       
              ,#####''   ,,,,##########,,,,          '''####'''          '####       
            ,##' ,,,,###########################,,,                        '##       
           ' ,,###''''                  '''############,,,                           
         ,,##''                                '''############,,,,        ,,,,,,###''
      ,#''                                            '''#######################'''  
     '                                                          ''''####''''         
             ,#######,   #######,   ,#######,      ##                                
            ,#'     '#,  ##    ##  ,#'     '#,    #''#        ######   ,####,        
            ##       ##  ##   ,#'  ##            #'  '#       #        #'  '#        
            ##       ##  #######   ##           ,######,      #####,   #    #        
            '#,     ,#'  ##    ##  '#,     ,#' ,#      #,         ##   #,  ,#        
             '#######'   ##     ##  '#######'  #'      '#     #####' # '####'        



                  #######################################################
                  #                        -***-                        #
                  #          Department of theory and spectroscopy      #
                  #    Directorship and core code : Frank Neese         #
                  #        Max Planck Institute fuer Kohlenforschung    #
                  #                Kaiser Wilhelm Platz 1               #
                  #                 D-45470 Muelheim/Ruhr               #
                  #                      Germany                        #
                  #                                                     #
                  #                  All rights reserved                #
                  #                        -***-                        #
                  #######################################################


                         Program Version 5.0.4 -  RELEASE  -


 With contributions from (in alphabetic order):
   Daniel Aravena         : Magnetic Suceptibility
   Michael Atanasov       : Ab Initio Ligand Field Theory (pilot matlab implementation)
   Alexander A. Auer      : GIAO ZORA, VPT2 properties, NMR spectrum
   Ute Becker             : Parallelization
   Giovanni Bistoni       : ED, misc. LED, open-shell LED, HFLD
   Martin Brehm           : Molecular dynamics
   Dmytro Bykov           : SCF Hessian
   Vijay G. Chilkuri      : MRCI spin determinant printing, contributions to CSF-ICE
   Dipayan Datta          : RHF DLPNO-CCSD density
   Achintya Kumar Dutta   : EOM-CC, STEOM-CC
   Dmitry Ganyushin       : Spin-Orbit,Spin-Spin,Magnetic field MRCI
   Miquel Garcia          : C-PCM and meta-GGA Hessian, CC/C-PCM, Gaussian charge scheme
   Yang Guo               : DLPNO-NEVPT2, F12-NEVPT2, CIM, IAO-localization
   Andreas Hansen         : Spin unrestricted coupled pair/coupled cluster methods
   Benjamin Helmich-Paris : MC-RPA, TRAH-SCF, COSX integrals
   Lee Huntington         : MR-EOM, pCC
   Robert Izsak           : Overlap fitted RIJCOSX, COSX-SCS-MP3, EOM
   Marcus Kettner         : VPT2
   Christian Kollmar      : KDIIS, OOCD, Brueckner-CCSD(T), CCSD density, CASPT2, CASPT2-K
   Simone Kossmann        : Meta GGA functionals, TD-DFT gradient, OOMP2, MP2 Hessian
   Martin Krupicka        : Initial AUTO-CI
   Lucas Lang             : DCDCAS
   Marvin Lechner         : AUTO-CI (C++ implementation), FIC-MRCC
   Dagmar Lenk            : GEPOL surface, SMD
   Dimitrios Liakos       : Extrapolation schemes; Compound Job, initial MDCI parallelization
   Dimitrios Manganas     : Further ROCIS development; embedding schemes
   Dimitrios Pantazis     : SARC Basis sets
   Anastasios Papadopoulos: AUTO-CI, single reference methods and gradients
   Taras Petrenko         : DFT Hessian,TD-DFT gradient, ASA, ECA, R-Raman, ABS, FL, XAS/XES, NRVS
   Peter Pinski           : DLPNO-MP2, DLPNO-MP2 Gradient
   Christoph Reimann      : Effective Core Potentials
   Marius Retegan         : Local ZFS, SOC
   Christoph Riplinger    : Optimizer, TS searches, QM/MM, DLPNO-CCSD(T), (RO)-DLPNO pert. Triples
   Tobias Risthaus        : Range-separated hybrids, TD-DFT gradient, RPA, STAB
   Michael Roemelt        : Original ROCIS implementation
   Masaaki Saitow         : Open-shell DLPNO-CCSD energy and density
   Barbara Sandhoefer     : DKH picture change effects
   Avijit Sen             : IP-ROCIS
   Kantharuban Sivalingam : CASSCF convergence, NEVPT2, FIC-MRCI
   Bernardo de Souza      : ESD, SOC TD-DFT
   Georgi Stoychev        : AutoAux, RI-MP2 NMR, DLPNO-MP2 response
   Willem Van den Heuvel  : Paramagnetic NMR
   Boris Wezisla          : Elementary symmetry handling
   Frank Wennmohs         : Technical directorship


 We gratefully acknowledge several colleagues who have allowed us to
 interface, adapt or use parts of their codes:
   Stefan Grimme, W. Hujo, H. Kruse, P. Pracht,  : VdW corrections, initial TS optimization,
                  C. Bannwarth, S. Ehlert          DFT functionals, gCP, sTDA/sTD-DF
   Ed Valeev, F. Pavosevic, A. Kumar             : LibInt (2-el integral package), F12 methods
   Garnet Chan, S. Sharma, J. Yang, R. Olivares  : DMRG
   Ulf Ekstrom                                   : XCFun DFT Library
   Mihaly Kallay                                 : mrcc  (arbitrary order and MRCC methods)
   Jiri Pittner, Ondrej Demel                    : Mk-CCSD
   Frank Weinhold                                : gennbo (NPA and NBO analysis)
   Christopher J. Cramer and Donald G. Truhlar   : smd solvation model
   Lars Goerigk                                  : TD-DFT with DH, B97 family of functionals
   V. Asgeirsson, H. Jonsson                     : NEB implementation
   FAccTs GmbH                                   : IRC, NEB, NEB-TS, DLPNO-Multilevel, CI-OPT
                                                   MM, QMMM, 2- and 3-layer-ONIOM, Crystal-QMMM,
                                                   LR-CPCM, SF, NACMEs, symmetry and pop. for TD-DFT,
                                                   nearIR, NL-DFT gradient (VV10), updates on ESD,
                                                   ML-optimized integration grids
   S Lehtola, MJT Oliveira, MAL Marques          : LibXC Library
   Liviu Ungur et al                             : ANISO software


 Your calculation uses the libint2 library for the computation of 2-el integrals
 For citations please refer to: http://libint.valeyev.net

 Your ORCA version has been built with support for libXC version: 5.1.0
 For citations please refer to: https://tddft.org/programs/libxc/

 This ORCA versions uses:
   CBLAS   interface :  Fast vector & matrix operations
   LAPACKE interface :  Fast linear algebra routines
   SCALAPACK package :  Parallel linear algebra routines
   Shared memory     :  Shared parallel matrices
   BLAS/LAPACK       :  OpenBLAS 0.3.15  USE64BITINT DYNAMIC_ARCH NO_AFFINITY SkylakeX SINGLE_THREADED
        Core in use  :  SkylakeX
   Copyright (c) 2011-2014, The OpenBLAS Project




***************************************
The coordinates will be read from file: mol.xyz
***************************************


Your calculation utilizes the atom-pairwise dispersion correction
with the Becke-Johnson damping scheme (D3BJ)
Cite in your paper:
S.Grimme, S.Ehrlich, L.Goerigk, J Comput Chem, (2011), 32, 1456–1465 
S.Grimme, J.Antony, S.Ehrlich and H.Krieg, J.Chem.Phys., 132, (2010), 154104 
   

Your calculation utilizes the semiempirical GFN2-xTB method
Please cite in your paper:
C. Bannwarth, Ehlert S., S. Grimme,  J. Chem. Theory Comput., 15, (2019), 1652.
   

================================================================================

----- Orbital basis set information -----
Your calculation utilizes the basis: def2-SVP
   F. Weigend and R. Ahlrichs, Phys. Chem. Chem. Phys. 7, 3297 (2005).

----- AuxJ basis set information -----
Your calculation utilizes the auxiliary basis: def2/J
   F. Weigend, Phys. Chem. Chem. Phys. 8, 1057 (2006).

================================================================================
                                        WARNINGS
                       Please study these warnings very carefully!
================================================================================


WARNING: Geometry Optimization
  ===> : Switching off AutoStart
         For restart on a previous wavefunction, please use MOREAD

WARNING: Found dipole moment calculation with XTB calculation
  ===> : Switching off dipole moment calculation


WARNING: TRAH-SCF for XTB is not implemented!
  ===> : Turning TRAH off!

================================================================================
                                       INPUT FILE
================================================================================
NAME = /home/jang/cal_tmp/10_orca/Gen_chromophore/Gen_molecular_pairs_cal/mol_4_2.xyz/input.inp
|  1> ! B3LYP D3BJ def2-SVP TightSCF XTB Opt PAL8
|  2> 
|  3> %geom
|  4>   MaxIter 3000
|  5> end
|  6> 
|  7> * xyzfile 0 1 mol.xyz
|  8> 
|  9> %pal nprocs 4 # any number (positive integer)
| 10> end
| 11> 
| 12>                          ****END OF INPUT****
================================================================================

                       *****************************
                       * Geometry Optimization Run *
                       *****************************

Geometry optimization settings:
Update method            Update   .... BFGS
Choice of coordinates    CoordSys .... Z-matrix Internals
Initial Hessian          InHess   .... Almoef's Model

Convergence Tolerances:
Energy Change            TolE     ....  5.0000e-06 Eh
Max. Gradient            TolMAXG  ....  3.0000e-04 Eh/bohr
RMS Gradient             TolRMSG  ....  1.0000e-04 Eh/bohr
Max. Displacement        TolMAXD  ....  4.0000e-03 bohr
RMS Displacement         TolRMSD  ....  2.0000e-03 bohr
Strict Convergence                ....  False
------------------------------------------------------------------------------
                        ORCA OPTIMIZATION COORDINATE SETUP
------------------------------------------------------------------------------

The optimization will be done in new redundant internal coordinates
Making redundant internal coordinates   ...  (new redundants) done
Evaluating the initial hessian          ...  (Almloef) done
Evaluating the coordinates              ...  done
Calculating the B-matrix                .... done
Calculating the G-matrix                .... done
Diagonalizing the G-matrix              .... done
Small eigenvalue found = 1.756e-03
Small eigenvalue found = 3.280e-03
Small eigenvalue found = 1.193e-02
Small eigenvalue found = 2.417e-02
The first mode is                       ....  154
The number of degrees of freedom        ....  126

    -----------------------------------------------------------------
                    Redundant Internal Coordinates


    -----------------------------------------------------------------
         Definition                    Initial Value    Approx d2E/dq
    -----------------------------------------------------------------
      1. B(C   1,O   0)                  1.2849         0.823387   
      2. B(C   2,C   1)                  1.4424         0.515393   
      3. B(C   3,C   2)                  1.5207         0.386613   
      4. B(N   4,C   3)                  1.3220         0.718419   
      5. B(C   5,N   4)                  1.3751         0.591050   
      6. B(C   6,C   5)                  1.4096         0.581431   
      7. B(C   7,C   6)                  1.3985         0.605619   
      8. B(C   8,C   7)                  1.3914         0.621495   
      9. B(C   9,C   8)                  1.3992         0.604003   
     10. B(C  10,C   5)                  1.3887         0.627744   
     11. B(C  10,C   9)                  1.4060         0.589182   
     12. B(S  11,C  10)                  1.7130         0.514179   
     13. B(S  11,C   3)                  1.7484         0.451512   
     14. B(C  12,C   2)                  1.4199         0.559798   
     15. B(C  13,C  12)                  1.3980         0.606654   
     16. B(C  14,C  13)                  1.4045         0.592457   
     17. B(C  15,C  14)                  1.3944         0.614694   
     18. B(C  16,C  15)                  1.3975         0.607735   
     19. B(C  17,C  16)                  1.4037         0.594110   
     20. B(C  18,C  17)                  1.3933         0.617280   
     21. B(C  19,C  18)                  1.3931         0.617758   
     22. B(C  20,C  19)                  1.4036         0.594309   
     23. B(C  21,C  20)                  1.3932         0.617397   
     24. B(C  22,C  21)                  1.3982         0.606258   
     25. B(C  23,C  22)                  1.4152         0.569485   
     26. B(C  23,C   1)                  1.4538         0.494301   
     27. B(C  24,C  23)                  1.4187         0.562295   
     28. B(C  24,C  13)                  1.4000         0.602352   
     29. B(C  25,C  24)                  1.4263         0.546765   
     30. B(C  25,C  20)                  1.4113         0.577771   
     31. B(C  25,C  16)                  1.4162         0.567433   
     32. B(H  26,C   6)                  1.0856         0.366003   
     33. B(H  27,C   7)                  1.0864         0.364831   
     34. B(H  28,C   8)                  1.0871         0.364009   
     35. B(H  29,C   9)                  1.0848         0.367101   
     36. B(H  30,C  12)                  1.0846         0.367306   
     37. B(H  31,C  14)                  1.0872         0.363849   
     38. B(H  32,C  15)                  1.0863         0.365023   
     39. B(H  33,C  17)                  1.0869         0.364255   
     40. B(H  34,C  18)                  1.0858         0.365644   
     41. B(H  35,C  19)                  1.0871         0.363934   
     42. B(H  36,C  21)                  1.0856         0.365954   
     43. B(H  37,C  22)                  1.0902         0.359800   
     44. B(C  39,C  38)                  1.4619         0.479735   
     45. B(N  40,H  35)                  6.5429         0.000000   
     46. B(N  40,H  34)                  5.7432         0.000000   
     47. B(N  40,C  18)                  6.6909         0.000000   
     48. B(N  40,C  39)                  1.1602         1.301459   
     49. B(H  41,C  38)                  1.0940         0.354795   
     50. B(H  42,C  38)                  1.0940         0.354795   
     51. B(H  43,C  38)                  1.0940         0.354795   
     52. A(O   0,C   1,C   2)          123.2156         0.438975   
     53. A(O   0,C   1,C  23)          120.1031         0.435681   
     54. A(C   2,C   1,C  23)          116.6813         0.403388   
     55. A(C   3,C   2,C  12)          118.4546         0.391996   
     56. A(C   1,C   2,C   3)          122.7666         0.386380   
     57. A(C   1,C   2,C  12)          118.7789         0.412368   
     58. A(C   2,C   3,S  11)          120.8782         0.397867   
     59. A(N   4,C   3,S  11)          111.6850         0.441445   
     60. A(C   2,C   3,N   4)          127.4368         0.406959   
     61. A(C   3,N   4,C   5)          112.8428         0.436142   
     62. A(C   6,C   5,C  10)          118.8469         0.430043   
     63. A(N   4,C   5,C   6)          125.9163         0.422657   
     64. A(N   4,C   5,C  10)          115.2368         0.428495   
     65. A(C   7,C   6,H  26)          121.4304         0.352479   
     66. A(C   5,C   6,H  26)          118.6441         0.350059   
     67. A(C   5,C   6,C   7)          119.9255         0.427284   
     68. A(C   8,C   7,H  27)          120.3145         0.353834   
     69. A(C   6,C   7,C   8)          120.2737         0.432425   
     70. A(C   6,C   7,H  27)          119.4118         0.352287   
     71. A(C   7,C   8,C   9)          120.7748         0.432217   
     72. A(C   7,C   8,H  28)          119.7080         0.353699   
     73. A(C   9,C   8,H  28)          119.5172         0.351994   
     74. A(C   8,C   9,C  10)          118.2637         0.428095   
     75. A(C  10,C   9,H  29)          120.7670         0.351020   
     76. A(C   8,C   9,H  29)          120.9693         0.352498   
     77. A(C   5,C  10,C   9)          121.9155         0.431067   
     78. A(C   9,C  10,S  11)          129.4026         0.438914   
     79. A(C   5,C  10,S  11)          108.6820         0.443971   
     80. A(C   3,S  11,C  10)           91.5534         0.441588   
     81. A(C   2,C  12,H  30)          120.0311         0.348037   
     82. A(C   2,C  12,C  13)          123.5018         0.424523   
     83. A(C  13,C  12,H  30)          116.4671         0.352793   
     84. A(C  12,C  13,C  14)          120.9148         0.428857   
     85. A(C  14,C  13,C  24)          119.9756         0.428310   
     86. A(C  12,C  13,C  24)          119.1096         0.430134   
     87. A(C  15,C  14,H  31)          118.8660         0.353014   
     88. A(C  13,C  14,H  31)          120.1032         0.350822   
     89. A(C  13,C  14,C  15)          121.0308         0.429871   
     90. A(C  16,C  15,H  32)          120.7100         0.352527   
     91. A(C  14,C  15,H  32)          118.9676         0.353207   
     92. A(C  14,C  15,C  16)          120.3224         0.431841   
     93. A(C  15,C  16,C  17)          121.0568         0.429209   
     94. A(C  15,C  16,C  25)          119.1619         0.425689   
     95. A(C  17,C  16,C  25)          119.7812         0.423966   
     96. A(C  18,C  17,H  33)          119.0256         0.353332   
     97. A(C  16,C  17,H  33)          120.3465         0.351053   
     98. A(C  16,C  17,C  18)          120.6279         0.430411   
     99. A(C  17,C  18,C  19)          119.8604         0.433440   
    100. A(H  34,C  18,N  40)           26.8683         0.092127   
    101. A(C  17,C  18,N  40)          134.1602         0.093070   
    102. A(C  19,C  18,N  40)          101.3531         0.093071   
    103. A(C  19,C  18,H  34)          119.9938         0.353606   
    104. A(C  17,C  18,H  34)          120.1459         0.353560   
    105. A(C  18,C  19,C  20)          120.6277         0.430496   
    106. A(C  20,C  19,H  35)          120.1133         0.351020   
    107. A(C  18,C  19,H  35)          119.2590         0.353325   
    108. A(C  19,C  20,C  21)          121.2254         0.430451   
    109. A(C  21,C  20,C  25)          118.8670         0.428277   
    110. A(C  19,C  20,C  25)          119.9075         0.425363   
    111. A(C  20,C  21,C  22)          120.2847         0.431993   
    112. A(C  22,C  21,H  36)          118.3869         0.352534   
    113. A(C  20,C  21,H  36)          121.3284         0.353622   
    114. A(C  23,C  22,H  37)          118.3415         0.347832   
    115. A(C  21,C  22,H  37)          118.3073         0.351524   
    116. A(C  21,C  22,C  23)          123.3513         0.425779   
    117. A(C  22,C  23,C  24)          115.7296         0.420089   
    118. A(C   1,C  23,C  24)          122.4004         0.409647   
    119. A(C   1,C  23,C  22)          121.8700         0.410571   
    120. A(C  23,C  24,C  25)          121.5417         0.417053   
    121. A(C  13,C  24,C  25)          118.9302         0.422202   
    122. A(C  13,C  24,C  23)          119.5280         0.424321   
    123. A(C  20,C  25,C  24)          120.2257         0.419075   
    124. A(C  16,C  25,C  24)          120.5790         0.417729   
    125. A(C  16,C  25,C  20)          119.1953         0.421858   
    126. A(C  18,H  34,N  40)          148.2300         0.093076   
    127. A(C  19,H  35,N  40)          116.6737         0.091094   
    128. A(H  42,C  38,H  43)          108.0977         0.289488   
    129. A(H  41,C  38,H  43)          108.0976         0.289488   
    130. A(C  39,C  38,H  43)          110.8121         0.337190   
    131. A(H  41,C  38,H  42)          108.0977         0.289488   
    132. A(C  39,C  38,H  42)          110.8122         0.337190   
    133. A(C  39,C  38,H  41)          110.8121         0.337190   
    134. L(C  38,C  39,N  40,H  43, 2) 180.0000         0.470937   
    135. L(C  38,C  39,N  40,H  43, 1) 180.0000         0.470937   
    136. A(H  34,N  40,H  35)           21.9497         0.089042   
    137. A(C  18,N  40,H  35)           18.6161         0.089032   
    138. A(H  35,N  40,C  39)          165.4983         0.092204   
    139. A(H  34,N  40,C  39)          162.0535         0.095230   
    140. A(C  18,N  40,C  39)          166.9548         0.093779   
    141. D(C   3,C   2,C   1,C  23)    179.9970         0.018109   
    142. D(C  12,C   2,C   1,C  23)     -0.0041         0.018109   
    143. D(C  12,C   2,C   1,O   0)    179.9927         0.018109   
    144. D(C   3,C   2,C   1,O   0)     -0.0062         0.018109   
    145. D(N   4,C   3,C   2,C   1)     -0.0380         0.010321   
    146. D(N   4,C   3,C   2,C  12)    179.9631         0.010321   
    147. D(S  11,C   3,C   2,C   1)    179.9638         0.010321   
    148. D(S  11,C   3,C   2,C  12)     -0.0351         0.010321   
    149. D(C   5,N   4,C   3,C   2)    179.9969         0.038849   
    150. D(C   5,N   4,C   3,S  11)     -0.0047         0.038849   
    151. D(C  10,C   5,N   4,C   3)      0.0075         0.025465   
    152. D(C   6,C   5,N   4,C   3)   -179.9922         0.025465   
    153. D(H  26,C   6,C   5,C  10)   -179.9958         0.023231   
    154. D(C   7,C   6,C   5,N   4)   -179.9975         0.023231   
    155. D(H  26,C   6,C   5,N   4)      0.0040         0.023231   
    156. D(C   7,C   6,C   5,C  10)      0.0027         0.023231   
    157. D(H  27,C   7,C   6,H  26)     -0.0016         0.025310   
    158. D(C   8,C   7,C   6,C   5)      0.0032         0.025310   
    159. D(H  27,C   7,C   6,C   5)    179.9999         0.025310   
    160. D(C   8,C   7,C   6,H  26)   -179.9984         0.025310   
    161. D(H  28,C   8,C   7,H  27)      0.0008         0.026736   
    162. D(H  28,C   8,C   7,C   6)    179.9976         0.026736   
    163. D(C   9,C   8,C   7,H  27)    179.9980         0.026736   
    164. D(C   9,C   8,C   7,C   6)     -0.0053         0.026736   
    165. D(H  29,C   9,C   8,C   7)   -179.9976         0.025168   
    166. D(C  10,C   9,C   8,H  28)    179.9986         0.025168   
    167. D(H  29,C   9,C   8,H  28)     -0.0005         0.025168   
    168. D(C  10,C   9,C   8,C   7)      0.0014         0.025168   
    169. D(S  11,C  10,C   5,N   4)     -0.0066         0.027310   
    170. D(C   9,C  10,C   5,C   6)     -0.0067         0.027310   
    171. D(C   9,C  10,C   5,N   4)    179.9935         0.027310   
    172. D(S  11,C  10,C   9,H  29)      0.0039         0.023886   
    173. D(C   5,C  10,C   9,C   8)      0.0047         0.023886   
    174. D(S  11,C  10,C   9,C   8)   -179.9952         0.023886   
    175. D(C   5,C  10,C   9,H  29)   -179.9963         0.023886   
    176. D(S  11,C  10,C   5,C   6)    179.9932         0.027310   
    177. D(C   3,S  11,C  10,C   9)   -179.9970         0.005430   
    178. D(C   3,S  11,C  10,C   5)      0.0032         0.005430   
    179. D(C  10,S  11,C   3,N   4)      0.0008         0.004493   
    180. D(C  10,S  11,C   3,C   2)    179.9993         0.004493   
    181. D(H  30,C  12,C   2,C   3)     -0.0065         0.021465   
    182. D(H  30,C  12,C   2,C   1)    179.9946         0.021465   
    183. D(C  13,C  12,C   2,C   3)    179.9982         0.021465   
    184. D(C  13,C  12,C   2,C   1)     -0.0007         0.021465   
    185. D(C  24,C  13,C  12,H  30)   -179.9906         0.025402   
    186. D(C  24,C  13,C  12,C   2)      0.0048         0.025402   
    187. D(C  14,C  13,C  12,H  30)      0.0071         0.025402   
    188. D(C  14,C  13,C  12,C   2)   -179.9975         0.025402   
    189. D(H  31,C  14,C  13,C  24)   -179.9990         0.024165   
    190. D(H  31,C  14,C  13,C  12)      0.0033         0.024165   
    191. D(C  15,C  14,C  13,C  24)      0.0000         0.024165   
    192. D(C  15,C  14,C  13,C  12)   -179.9977         0.024165   
    193. D(H  32,C  15,C  14,H  31)      0.0017         0.026119   
    194. D(H  32,C  15,C  14,C  13)   -179.9973         0.026119   
    195. D(C  16,C  15,C  14,H  31)    179.9972         0.026119   
    196. D(C  16,C  15,C  14,C  13)     -0.0019         0.026119   
    197. D(C  25,C  16,C  15,H  32)    179.9986         0.025498   
    198. D(C  25,C  16,C  15,C  14)      0.0032         0.025498   
    199. D(C  17,C  16,C  15,H  32)     -0.0031         0.025498   
    200. D(C  17,C  16,C  15,C  14)   -179.9984         0.025498   
    201. D(H  33,C  17,C  16,C  15)     -0.0009         0.024307   
    202. D(C  18,C  17,C  16,C  25)      0.0035         0.024307   
    203. D(C  18,C  17,C  16,C  15)   -179.9948         0.024307   
    204. D(H  33,C  17,C  16,C  25)    179.9974         0.024307   
    205. D(N  40,C  18,C  17,H  33)     29.0840         0.028635   
    206. D(H  34,C  18,C  17,H  33)      0.0068         0.028635   
    207. D(H  34,C  18,C  17,C  16)   -179.9992         0.028635   
    208. D(N  40,C  18,C  17,C  16)   -150.9220         0.028635   
    209. D(C  19,C  18,C  17,H  33)   -179.9977         0.028635   
    210. D(C  19,C  18,C  17,C  16)     -0.0037         0.028635   
    211. D(H  35,C  19,C  18,N  40)    -20.8304         0.028682   
    212. D(H  35,C  19,C  18,H  34)     -0.0014         0.028682   
    213. D(H  35,C  19,C  18,C  17)   -179.9969         0.028682   
    214. D(C  20,C  19,C  18,N  40)    159.1678         0.028682   
    215. D(C  20,C  19,C  18,H  34)    179.9968         0.028682   
    216. D(C  20,C  19,C  18,C  17)      0.0013         0.028682   
    217. D(C  25,C  20,C  19,H  35)    179.9995         0.024325   
    218. D(C  25,C  20,C  19,C  18)      0.0013         0.024325   
    219. D(C  21,C  20,C  19,H  35)     -0.0008         0.024325   
    220. D(C  21,C  20,C  19,C  18)   -179.9989         0.024325   
    221. D(H  36,C  21,C  20,C  25)    179.9982         0.026363   
    222. D(H  36,C  21,C  20,C  19)     -0.0015         0.026363   
    223. D(C  22,C  21,C  20,C  25)     -0.0016         0.026363   
    224. D(C  22,C  21,C  20,C  19)    179.9987         0.026363   
    225. D(H  37,C  22,C  21,H  36)     -0.0007         0.025367   
    226. D(H  37,C  22,C  21,C  20)    179.9991         0.025367   
    227. D(C  23,C  22,C  21,H  36)   -179.9972         0.025367   
    228. D(C  23,C  22,C  21,C  20)      0.0026         0.025367   
    229. D(C  24,C  23,C  22,H  37)   -179.9974         0.022245   
    230. D(C  24,C  23,C  22,C  21)     -0.0009         0.022245   
    231. D(C   1,C  23,C  22,H  37)      0.0040         0.022245   
    232. D(C   1,C  23,C  22,C  21)   -179.9995         0.022245   
    233. D(C  24,C  23,C   1,C   2)      0.0052         0.016639   
    234. D(C  24,C  23,C   1,O   0)   -179.9918         0.016639   
    235. D(C  22,C  23,C   1,C   2)   -179.9964         0.016639   
    236. D(C  22,C  23,C   1,O   0)      0.0067         0.016639   
    237. D(C  25,C  24,C  23,C  22)     -0.0017         0.021665   
    238. D(C  25,C  24,C  23,C   1)    179.9969         0.021665   
    239. D(C  13,C  24,C  23,C  22)   -179.9998         0.021665   
    240. D(C  13,C  24,C  23,C   1)     -0.0013         0.021665   
    241. D(C  25,C  24,C  13,C  14)      0.0004         0.025023   
    242. D(C  25,C  24,C  13,C  12)    179.9981         0.025023   
    243. D(C  23,C  24,C  13,C  14)    179.9985         0.025023   
    244. D(C  23,C  24,C  13,C  12)     -0.0037         0.025023   
    245. D(C  20,C  25,C  24,C  23)      0.0026         0.020443   
    246. D(C  20,C  25,C  24,C  13)   -179.9992         0.020443   
    247. D(C  16,C  25,C  24,C  23)   -179.9971         0.020443   
    248. D(C  16,C  25,C  24,C  13)      0.0011         0.020443   
    249. D(C  24,C  25,C  20,C  21)     -0.0009         0.022926   
    250. D(C  24,C  25,C  20,C  19)    179.9988         0.022926   
    251. D(C  16,C  25,C  20,C  21)    179.9988         0.022926   
    252. D(C  16,C  25,C  20,C  19)     -0.0015         0.022926   
    253. D(C  24,C  25,C  16,C  17)    179.9988         0.022079   
    254. D(C  24,C  25,C  16,C  15)     -0.0029         0.022079   
    255. D(C  20,C  25,C  16,C  17)     -0.0009         0.022079   
    256. D(C  20,C  25,C  16,C  15)    179.9975         0.022079   
    257. D(N  40,H  34,C  18,C  19)    -50.4787         0.126078   
    258. D(N  40,H  34,C  18,C  17)    129.5168         0.126078   
    259. D(N  40,H  35,C  19,C  20)   -156.4833         0.112490   
    260. D(N  40,H  35,C  19,C  18)     23.5150         0.112490   
    261. D(H  35,N  40,C  18,H  34)   -127.7532         0.001500   
    262. D(H  35,N  40,C  18,C  19)      9.2923         0.001500   
    263. D(H  35,N  40,C  18,C  17)    163.8285         0.001500   
    264. D(C  39,N  40,C  18,H  34)      0.8113         0.001500   
    265. D(C  39,N  40,C  18,C  19)    137.8568         0.001500   
    266. D(C  39,N  40,H  34,C  18)   -179.4057         0.001500   
    267. D(C  39,N  40,C  18,C  17)    -67.6070         0.001500   
    268. D(H  35,N  40,C  38,H  43)      2.4332         0.001503   
    269. D(H  35,N  40,C  38,H  41)    122.4331         0.001503   
    270. D(H  34,N  40,C  38,H  43)    -82.7512         0.001503   
    271. D(H  34,N  40,C  38,H  42)    157.2488         0.001503   
    272. D(H  34,N  40,C  38,H  41)     37.2488         0.001503   
    273. D(C  18,N  40,C  38,H  43)    -82.9761         0.001503   
    274. D(C  18,N  40,C  38,H  42)    157.0239         0.001503   
    275. D(C  18,N  40,C  38,H  41)     37.0238         0.001503   
    276. D(H  34,N  40,H  35,C  19)    -23.5350         0.001500   
    277. D(C  18,N  40,H  35,C  19)    -13.1223         0.001500   
    278. D(H  35,N  40,C  38,H  42)   -117.5668         0.001503   
    279. D(C  39,N  40,H  35,C  19)   -148.3076         0.001500   
    280. D(H  35,N  40,H  34,C  18)     42.4724         0.001500   
    -----------------------------------------------------------------

Number of atoms                         .... 44
Number of degrees of freedom            .... 280

         *************************************************************
         *                GEOMETRY OPTIMIZATION CYCLE   1            *
         *************************************************************
---------------------------------
CARTESIAN COORDINATES (ANGSTROEM)
---------------------------------
  O     0.728670    0.858955   -2.365735
  C     0.157515    0.470896   -1.282184
  C     0.885928   -0.004226   -0.131449
  C     2.403773   -0.089624   -0.095893
  N     3.249834    0.237849   -1.057457
  C     4.563620    0.040190   -0.702720
  C     5.686956    0.297452   -1.514417
  C     6.973150    0.049393   -1.024587
  C     7.149483   -0.450845    0.261795
  C     6.048901   -0.713503    1.084917
  C     4.762499   -0.458781    0.577910
  S     3.236626   -0.672718    1.326545
  C     0.158373   -0.410109    1.018354
  C    -1.236797   -0.375601    1.100647
  C    -1.901340   -0.790485    2.266315
  C    -3.292802   -0.757125    2.351013
  C    -4.054916   -0.306971    1.269508
  C    -5.456380   -0.266899    1.338004
  C    -6.207432    0.183450    0.254317
  C    -5.565124    0.598831   -0.909977
  C    -4.164980    0.568625   -1.003934
  C    -3.509750    0.981122   -2.162229
  C    -2.113941    0.942814   -2.234414
  C    -1.291847    0.497215   -1.172112
  C    -1.972852    0.080392    0.000566
  C    -3.396047    0.113956    0.088671
  H     5.527696    0.687525   -2.514892
  H     7.833068    0.250687   -1.657350
  H     8.153395   -0.640336    0.633219
  H     6.182720   -1.103463    2.088274
  H     0.685534   -0.770814    1.894917
  H    -1.331790   -1.144955    3.121842
  H    -3.772055   -1.085815    3.268802
  H    -5.971488   -0.587788    2.239667
  H    -7.291175    0.211181    0.315825
  H    -6.160694    0.948438   -1.749557
  H    -4.061650    1.337997   -3.026287
  H    -1.634680    1.273089   -3.156273
  C   -14.682479    3.864754   -0.415310
  C   -13.268126    3.495810   -0.389152
  N   -12.145627    3.202998   -0.368391
  H   -15.215407    3.422066    0.431412
  H   -14.801923    4.950933   -0.361721
  H   -15.158320    3.515566   -1.336486

----------------------------
CARTESIAN COORDINATES (A.U.)
----------------------------
  NO LB    ZA    FRAG    MASS        X           Y           Z
   0 O   8.0000    0    15.999    1.376986    1.623190   -4.470591
   1 C   6.0000    0    12.011    0.297660    0.889865   -2.422976
   2 C   6.0000    0    12.011    1.674161   -0.007985   -0.248403
   3 C   6.0000    0    12.011    4.542473   -0.169364   -0.181212
   4 N   7.0000    0    14.007    6.141297    0.449470   -1.998304
   5 C   6.0000    0    12.011    8.623992    0.075948   -1.327949
   6 C   6.0000    0    12.011   10.746789    0.562102   -2.861834
   7 C   6.0000    0    12.011   13.177344    0.093339   -1.936189
   8 C   6.0000    0    12.011   13.510565   -0.851973    0.494721
   9 C   6.0000    0    12.011   11.430767   -1.348326    2.050195
  10 C   6.0000    0    12.011    8.999820   -0.866970    1.092092
  11 S  16.0000    0    32.060    6.116338   -1.271252    2.506807
  12 C   6.0000    0    12.011    0.299282   -0.774993    1.924409
  13 C   6.0000    0    12.011   -2.337208   -0.709783    2.079921
  14 C   6.0000    0    12.011   -3.593011   -1.493800    4.282715
  15 C   6.0000    0    12.011   -6.222495   -1.430760    4.442771
  16 C   6.0000    0    12.011   -7.662681   -0.580092    2.399023
  17 C   6.0000    0    12.011  -10.311064   -0.504367    2.528461
  18 C   6.0000    0    12.011  -11.730347    0.346670    0.480590
  19 C   6.0000    0    12.011  -10.516560    1.131627   -1.719607
  20 C   6.0000    0    12.011   -7.870672    1.074545   -1.897160
  21 C   6.0000    0    12.011   -6.632466    1.854051   -4.086020
  22 C   6.0000    0    12.011   -3.994770    1.781660   -4.222431
  23 C   6.0000    0    12.011   -2.441238    0.939600   -2.214971
  24 C   6.0000    0    12.011   -3.728151    0.151919    0.001070
  25 C   6.0000    0    12.011   -6.417599    0.215346    0.167565
  26 H   1.0000    0     1.008   10.445831    1.299234   -4.752457
  27 H   1.0000    0     1.008   14.802354    0.473730   -3.131939
  28 H   1.0000    0     1.008   15.407684   -1.210059    1.196611
  29 H   1.0000    0     1.008   11.683648   -2.085244    3.946265
  30 H   1.0000    0     1.008    1.295471   -1.456628    3.580875
  31 H   1.0000    0     1.008   -2.516719   -2.163650    5.899427
  32 H   1.0000    0     1.008   -7.128150   -2.051893    6.177140
  33 H   1.0000    0     1.008  -11.284477   -1.110759    4.232357
  34 H   1.0000    0     1.008  -13.778324    0.399075    0.596823
  35 H   1.0000    0     1.008  -11.642025    1.792288   -3.306183
  36 H   1.0000    0     1.008   -7.675406    2.528448   -5.718853
  37 H   1.0000    0     1.008   -3.089098    2.405790   -5.964491
  38 C   6.0000    0    12.011  -27.745864    7.303327   -0.784822
  39 C   6.0000    0    12.011  -25.073125    6.606124   -0.735390
  40 N   7.0000    0    14.007  -22.951908    6.052789   -0.696159
  41 H   1.0000    0     1.008  -28.752953    6.466767    0.815250
  42 H   1.0000    0     1.008  -27.971581    9.355907   -0.683554
  43 H   1.0000    0     1.008  -28.645074    6.643456   -2.525593

      -----------------------------------------------------------      
     |                   =====================                   |     
     |                           x T B                           |     
     |                   =====================                   |     
     |                         S. Grimme                         |     
     |          Mulliken Center for Theoretical Chemistry        |     
     |                    University of Bonn                     |     
      -----------------------------------------------------------      

   * xtb version 6.6.1 (8d0f1dd) compiled by 'stahn@M-Bot' on 2023-08-01

   xtb is free software: you can redistribute it and/or modify it under
   the terms of the GNU Lesser General Public License as published by
   the Free Software Foundation, either version 3 of the License, or
   (at your option) any later version.
   
   xtb is distributed in the hope that it will be useful,
   but WITHOUT ANY WARRANTY; without even the implied warranty of
   MERCHANTABILITY or FITNESS FOR A PARTICULAR PURPOSE.  See the
   GNU Lesser General Public License for more details.
   
   Cite this work as:
   * C. Bannwarth, E. Caldeweyher, S. Ehlert, A. Hansen, P. Pracht,
     J. Seibert, S. Spicher, S. Grimme, WIREs Comput. Mol. Sci., 2020, 11,
     e01493. DOI: 10.1002/wcms.1493
   
   for GFN2-xTB:
   * C. Bannwarth, S. Ehlert and S. Grimme., J. Chem. Theory Comput., 2019,
     15, 1652-1671. DOI: 10.1021/acs.jctc.8b01176
   for GFN1-xTB:
   * S. Grimme, C. Bannwarth, P. Shushkov, J. Chem. Theory Comput., 2017,
     13, 1989-2009. DOI: 10.1021/acs.jctc.7b00118
   for GFN0-xTB:
   * P. Pracht, E. Caldeweyher, S. Ehlert, S. Grimme, ChemRxiv, 2019, preprint.
     DOI: 10.26434/chemrxiv.8326202.v1
   for GFN-FF:
   * S. Spicher and S. Grimme, Angew. Chem. Int. Ed., 2020, 59, 15665-15673.
     DOI: 10.1002/anie.202004239
   
   for ALPB and GBSA implicit solvation:
   * S. Ehlert, M. Stahn, S. Spicher, S. Grimme, J. Chem. Theory Comput.,
     2021, 17, 4250-4261. DOI: 10.1021/acs.jctc.1c00471
   
   for DFT-D4:
   * E. Caldeweyher, C. Bannwarth and S. Grimme, J. Chem. Phys., 2017,
     147, 034112. DOI: 10.1063/1.4993215
   * E. Caldeweyher, S. Ehlert, A. Hansen, H. Neugebauer, S. Spicher,
     C. Bannwarth and S. Grimme, J. Chem. Phys., 2019, 150, 154122.
     DOI: 10.1063/1.5090222
   * E. Caldeweyher, J.-M. Mewes, S. Ehlert and S. Grimme, Phys. Chem. Chem. Phys.
     2020, 22, 8499-8512. DOI: 10.1039/D0CP00502A
   
   for sTDA-xTB:
   * S. Grimme and C. Bannwarth, J. Chem. Phys., 2016, 145, 054103.
     DOI: 10.1063/1.4959605
   
   in the mass-spec context:
   * V. Asgeirsson, C. Bauer and S. Grimme, Chem. Sci., 2017, 8, 4879.
     DOI: 10.1039/c7sc00601b
   * J. Koopman and S. Grimme, ACS Omega 2019, 4, 12, 15120-15133.
     DOI: 10.1021/acsomega.9b02011
   
   for metadynamics refer to:
   * S. Grimme, J. Chem. Theory Comput., 2019, 155, 2847-2862
     DOI: 10.1021/acs.jctc.9b00143
   
   for SPH calculations refer to:
   * S. Spicher and S. Grimme, J. Chem. Theory Comput., 2021, 17, 1701-1714
     DOI: 10.1021/acs.jctc.0c01306
   
   with help from (in alphabetical order)
   P. Atkinson, C. Bannwarth, F. Bohle, G. Brandenburg, E. Caldeweyher
   M. Checinski, S. Dohm, S. Ehlert, S. Ehrlich, I. Gerasimov, C. Hölzer
   A. Katbashev, J. Koopman, C. Lavigne, S. Lehtola, F. März, M. Müller,
   F. Musil, H. Neugebauer, J. Pisarek, C. Plett, P. Pracht, F. Pultar,
   J. Seibert, P. Shushkov, S. Spicher, M. Stahn, M. Steiner, T. Strunk,
   J. Stückrath, T. Rose, and J. Unsleber
   
 * started run on 2025/01/14 at 22:18:31.946     

           -------------------------------------------------
          |                Calculation Setup                |
           -------------------------------------------------

          program call               : /home/jang/cal_tmp/10_orca/orca_5_0_4_linux_x86-64_shared_openmpi411/otool_xtb /home/jang/cal_tmp/10_orca/Gen_chromophore/Gen_molecular_pairs_cal/mol_4_2.xyz/input_XTB.xyz --grad -c 0 -u 0 -P 4 --namespace /home/jang/cal_tmp/10_orca/Gen_chromophore/Gen_molecular_pairs_cal/mol_4_2.xyz/input --input /home/jang/cal_tmp/10_orca/Gen_chromophore/Gen_molecular_pairs_cal/mol_4_2.xyz/input_XTB.input.tmp --acc 1.000000
          hostname                   : node02
          calculation namespace      : /home/jang/cal_tmp/10_orca/Gen_chromophore/Gen_molecular_pairs_cal/mol_4_2.xyz/input
          coordinate file            : /home/jang/cal_tmp/10_orca/Gen_chromophore/Gen_molecular_pairs_cal/mol_4_2.xyz/input_XTB.xyz
          omp threads                :                     4

   ID    Z sym.   atoms
    1    8 O      1
    2    6 C      2-4, 6-11, 13-26, 39, 40
    3    7 N      5, 41
    4   16 S      12
    5    1 H      27-38, 42-44

molecular fragmentation (1/2 indicates fragments):
11111111111111111111111111111111111111222222
# atoms in fragment 1/2:    38     6
 fragment masses (1/2) :      350.41       41.05
CMA distance (Bohr)    :  26.752
constraining FC (au)   :  0.0500

           -------------------------------------------------
          |                 G F N 2 - x T B                 |
           -------------------------------------------------

        Reference                      10.1021/acs.jctc.8b01176
      * Hamiltonian:
        H0-scaling (s, p, d)           1.850000    2.230000    2.230000
        zeta-weighting                 0.500000
      * Dispersion:
        s8                             2.700000
        a1                             0.520000
        a2                             5.000000
        s9                             5.000000
      * Repulsion:
        kExp                           1.500000    1.000000
        rExp                           1.000000
      * Coulomb:
        alpha                          2.000000
        third order                    shell-resolved
        anisotropic                    true
        a3                             3.000000
        a5                             4.000000
        cn-shift                       1.200000
        cn-exp                         4.000000
        max-rad                        5.000000

q/qsh data taken from xtbrestart
CAMM data taken from xtbrestart

          ...................................................
          :                      SETUP                      :
          :.................................................:
          :  # basis functions                 137          :
          :  # atomic orbitals                 136          :
          :  # shells                           74          :
          :  # electrons                       137          :
          :  max. iterations                   250          :
          :  Hamiltonian                  GFN2-xTB          :
          :  restarted?                       true          :
          :  GBSA solvation                  false          :
          :  PC potential                    false          :
          :  electronic temp.          300.0000000     K    :
          :  accuracy                    1.0000000          :
          :  -> integral cutoff          0.2500000E+02      :
          :  -> integral neglect         0.1000000E-07      :
          :  -> SCF convergence          0.1000000E-05 Eh   :
          :  -> wf. convergence          0.1000000E-03 e    :
          :  Broyden damping             0.4000000          :
          ...................................................

 iter      E             dE          RMSdq      gap      omega  full diag
   1    -75.3389970 -0.753390E+02  0.819E+00    1.63       0.0  T
   2    -75.4309569 -0.919599E-01  0.511E+00    1.75       1.0  T
   3    -74.9093434  0.521614E+00  0.362E+00    1.46       1.0  T
   4    -75.4147081 -0.505365E+00  0.134E+00    1.75       1.0  T
   5    -75.5071734 -0.924654E-01  0.532E-01    1.71       1.0  T
   6    -75.5116630 -0.448958E-02  0.317E-01    1.72       1.0  T
   7    -75.5129091 -0.124608E-02  0.193E-01    1.70       1.0  T
   8    -75.5132931 -0.383978E-03  0.797E-02    1.70       1.0  T
   9    -75.5135517 -0.258611E-03  0.226E-02    1.71       1.0  T
  10    -75.5135623 -0.106026E-04  0.108E-02    1.70       1.4  T
  11    -75.5135654 -0.310218E-05  0.425E-03    1.70       3.5  T
  12    -75.5135658 -0.368888E-06  0.200E-03    1.70       7.5  T
  13    -75.5135658 -0.290838E-07  0.114E-03    1.70      13.3  T
  14    -75.5135658 -0.180027E-07  0.488E-04    1.70      30.9  T
  15    -75.5135658 -0.455843E-08  0.193E-04    1.70      78.2  T

   *** convergence criteria satisfied after 15 iterations ***

         #    Occupation            Energy/Eh            Energy/eV
      -------------------------------------------------------------
         1        2.0000           -0.7311549             -19.8957
       ...           ...                  ...                  ...
        63        2.0000           -0.4166753             -11.3383
        64        2.0000           -0.4133267             -11.2472
        65        2.0000           -0.3876995             -10.5498
        66        2.0000           -0.3845625             -10.4645
        67        2.0000           -0.3828935             -10.4191
        68        1.9998           -0.3718141             -10.1176
        69        1.0002           -0.3553727              -9.6702 (HOMO)
        70                         -0.2927491              -7.9661 (LUMO)
        71                         -0.2709352              -7.3725
        72                         -0.2461043              -6.6968
        73                         -0.2430241              -6.6130
        74                         -0.2320887              -6.3155
       ...                                ...                  ...
       136                          1.0378157              28.2404
      -------------------------------------------------------------
                  HL-Gap            0.0626236 Eh            1.7041 eV
             Fermi-level           -0.3438272 Eh           -9.3560 eV

 SCC (total)                   0 d,  0 h,  0 min,  0.117 sec
 SCC setup                      ...        0 min,  0.001 sec (  0.542%)
 Dispersion                     ...        0 min,  0.001 sec (  1.234%)
 classical contributions        ...        0 min,  0.000 sec (  0.126%)
 integral evaluation            ...        0 min,  0.016 sec ( 13.501%)
 iterations                     ...        0 min,  0.083 sec ( 71.181%)
 molecular gradient             ...        0 min,  0.015 sec ( 12.788%)
 printout                       ...        0 min,  0.001 sec (  0.554%)

         :::::::::::::::::::::::::::::::::::::::::::::::::::::
         ::                     SUMMARY                     ::
         :::::::::::::::::::::::::::::::::::::::::::::::::::::
         :: total energy             -74.279064874990 Eh    ::
         :: gradient norm              0.162523583924 Eh/a0 ::
         :: HOMO-LUMO gap              1.704074784864 eV    ::
         ::.................................................::
         :: SCC energy               -75.513565801989 Eh    ::
         :: -> isotropic ES            0.050891064880 Eh    ::
         :: -> anisotropic ES          0.005776354842 Eh    ::
         :: -> anisotropic XC          0.054632608523 Eh    ::
         :: -> dispersion             -0.053625406762 Eh    ::
         :: repulsion energy           1.235122210777 Eh    ::
         :: add. restraining           0.000000000000 Eh    ::
         :: total charge              -0.000000000000 e     ::
         :::::::::::::::::::::::::::::::::::::::::::::::::::::


Property printout bound to 'properties.out'

           -------------------------------------------------
          | TOTAL ENERGY              -74.279064874990 Eh   |
          | GRADIENT NORM               0.162523583924 Eh/α |
          | HOMO-LUMO GAP               1.704074784864 eV   |
           -------------------------------------------------

------------------------------------------------------------------------
 * finished run on 2025/01/14 at 22:18:32.138     
------------------------------------------------------------------------
 total:
 * wall-time:     0 d,  0 h,  0 min,  0.190 sec
 *  cpu-time:     0 d,  0 h,  0 min,  0.661 sec
 * ratio c/w:     3.476 speedup
 SCF:
 * wall-time:     0 d,  0 h,  0 min,  0.117 sec
 *  cpu-time:     0 d,  0 h,  0 min,  0.466 sec
 * ratio c/w:     3.972 speedup


-------------------------   --------------------
FINAL SINGLE POINT ENERGY       -74.279064874990
-------------------------   --------------------

------------------------------------------------------------------------------
                         ORCA GEOMETRY RELAXATION STEP
------------------------------------------------------------------------------

Reading the OPT-File                    .... done
Getting information on internals        .... done
Copying old internal coords+grads       .... done
Making the new internal coordinates     .... (new redundants).... done
Validating the new internal coordinates .... (new redundants).... done
Calculating the B-matrix                .... done
Calculating the G,G- and P matrices     .... done
Transforming gradient to internals      .... done
Projecting the internal gradient        .... done
Number of atoms                         ....  44
Number of internal coordinates          .... 280
Current Energy                          ....   -74.279064875 Eh
Current gradient norm                   ....     0.162523584 Eh/bohr
Maximum allowed component of the step   ....  0.300
Current trust radius                    ....  0.300
Evaluating the initial hessian          ....  (Almloef) done
Projecting the Hessian                  .... done
Forming the augmented Hessian           .... done
Diagonalizing the augmented Hessian     .... done
Last element of RFO vector              ....  0.972829652
Lowest eigenvalues of augmented Hessian:
 -0.031583018  0.000085699  0.001502870  0.002419345  0.005901651
Length of the computed step             ....  0.237988292
The final length of the internal step   ....  0.237988292
Converting the step to cartesian space:
 Initial RMS(Int)=    0.0142225207
Transforming coordinates:
 Iter   0:  RMS(Cart)=    0.1006850948 RMS(Int)=    1.6367685287
 Iter   1:  RMS(Cart)=    0.0011891599 RMS(Int)=    1.3007276849
 Iter   2:  RMS(Cart)=    0.0000363135 RMS(Int)=    0.5310257316
 Iter   3:  RMS(Cart)=    0.0000016288 RMS(Int)=    0.0000003484
 Iter   4:  RMS(Cart)=    0.0000004281 RMS(Int)=    0.0000000912
 Iter   5:  RMS(Cart)=    0.0000001991 RMS(Int)=    0.0000000428
 Iter   6:  RMS(Cart)=    0.0000000944 RMS(Int)=    0.0000000202
done
Storing new coordinates                 .... done

                                .--------------------.
          ----------------------|Geometry convergence|-------------------------
          Item                value                   Tolerance       Converged
          ---------------------------------------------------------------------
          RMS gradient        0.0083169360            0.0001000000      NO
          MAX gradient        0.0608949111            0.0003000000      NO
          RMS step            0.0142225207            0.0020000000      NO
          MAX step            0.1270511399            0.0040000000      NO
          ........................................................
          Max(Bonds)      0.0672      Max(Angles)    2.51
          Max(Dihed)        0.16      Max(Improp)    0.00
          ---------------------------------------------------------------------

The optimization has not yet converged - more geometry cycles are needed


    ---------------------------------------------------------------------------
                         Redundant Internal Coordinates
                            (Angstroem and degrees)

        Definition                    Value    dE/dq     Step     New-Value
    ----------------------------------------------------------------------------
     1. B(C   1,O   0)                1.2849  0.060895 -0.0377    1.2472   
     2. B(C   2,C   1)                1.4424 -0.005213  0.0043    1.4467   
     3. B(C   3,C   2)                1.5207  0.053132 -0.0672    1.4534   
     4. B(N   4,C   3)                1.3220  0.037104 -0.0274    1.2946   
     5. B(C   5,N   4)                1.3751  0.021807 -0.0189    1.3563   
     6. B(C   6,C   5)                1.4096  0.014476 -0.0122    1.3973   
     7. B(C   7,C   6)                1.3985  0.020885 -0.0176    1.3809   
     8. B(C   8,C   7)                1.3914 -0.003715  0.0025    1.3939   
     9. B(C   9,C   8)                1.3992  0.018365 -0.0155    1.3837   
    10. B(C  10,C   5)                1.3887 -0.018834  0.0167    1.4054   
    11. B(C  10,C   9)                1.4060  0.019120 -0.0160    1.3900   
    12. B(S  11,C  10)                1.7130 -0.005730  0.0070    1.7200   
    13. B(S  11,C   3)                1.7484 -0.012024  0.0122    1.7606   
    14. B(C  12,C   2)                1.4199  0.040290 -0.0366    1.3833   
    15. B(C  13,C  12)                1.3980 -0.008568  0.0072    1.4052   
    16. B(C  14,C  13)                1.4045 -0.004286  0.0035    1.4079   
    17. B(C  15,C  14)                1.3944  0.021646 -0.0182    1.3763   
    18. B(C  16,C  15)                1.3975 -0.017044  0.0138    1.4114   
    19. B(C  17,C  16)                1.4037  0.001163 -0.0011    1.4026   
    20. B(C  18,C  17)                1.3933  0.005450 -0.0051    1.3882   
    21. B(C  19,C  18)                1.3931  0.008538 -0.0080    1.3851   
    22. B(C  20,C  19)                1.4036 -0.002443  0.0021    1.4058   
    23. B(C  21,C  20)                1.3932 -0.015577  0.0129    1.4061   
    24. B(C  22,C  21)                1.3982  0.022173 -0.0188    1.3794   
    25. B(C  23,C  22)                1.4152  0.012035 -0.0112    1.4040   
    26. B(C  23,C   1)                1.4538 -0.000473  0.0004    1.4542   
    27. B(C  24,C  23)                1.4187  0.008642 -0.0073    1.4114   
    28. B(C  24,C  13)                1.4000 -0.016791  0.0149    1.4149   
    29. B(C  25,C  24)                1.4263  0.014492 -0.0124    1.4140   
    30. B(C  25,C  20)                1.4113 -0.002252  0.0032    1.4145   
    31. B(C  25,C  16)                1.4162  0.000920 -0.0000    1.4162   
    32. B(H  26,C   6)                1.0856  0.005008 -0.0067    1.0789   
    33. B(H  27,C   7)                1.0864  0.005248 -0.0070    1.0794   
    34. B(H  28,C   8)                1.0871  0.005067 -0.0068    1.0803   
    35. B(H  29,C   9)                1.0848  0.004560 -0.0061    1.0787   
    36. B(H  30,C  12)                1.0846  0.001810 -0.0024    1.0822   
    37. B(H  31,C  14)                1.0872  0.004684 -0.0063    1.0809   
    38. B(H  32,C  15)                1.0863  0.004393 -0.0059    1.0804   
    39. B(H  33,C  17)                1.0869  0.004664 -0.0062    1.0806   
    40. B(H  34,C  18)                1.0858  0.003049 -0.0058    1.0800   
    41. B(H  35,C  19)                1.0871  0.005306 -0.0066    1.0805   
    42. B(H  36,C  21)                1.0856  0.004412 -0.0059    1.0797   
    43. B(H  37,C  22)                1.0902  0.005963 -0.0081    1.0822   
    44. B(C  39,C  38)                1.4619  0.021186 -0.0219    1.4400   
    45. B(N  40,H  35)                6.5429  0.001002 -0.0033    6.5397   
    46. B(N  40,H  34)                5.7432 -0.001567  0.0025    5.7457   
    47. B(N  40,C  18)                6.6909  0.000828 -0.0021    6.6887   
    48. B(N  40,C  39)                1.1602  0.044126 -0.0175    1.1427   
    49. B(H  41,C  38)                1.0940  0.002952 -0.0040    1.0900   
    50. B(H  42,C  38)                1.0940  0.002966 -0.0041    1.0900   
    51. B(H  43,C  38)                1.0940  0.002957 -0.0040    1.0900   
    52. A(O   0,C   1,C   2)          123.22  0.000424   -0.01    123.20   
    53. A(O   0,C   1,C  23)          120.10  0.000481   -0.02    120.09   
    54. A(C   2,C   1,C  23)          116.68 -0.000905    0.03    116.71   
    55. A(C   3,C   2,C  12)          118.45  0.002278   -0.20    118.26   
    56. A(C   1,C   2,C   3)          122.77  0.008831   -1.10    121.67   
    57. A(C   1,C   2,C  12)          118.78 -0.011109    1.29    120.07   
    58. A(C   2,C   3,S  11)          120.88  0.007629   -0.79    120.08   
    59. A(N   4,C   3,S  11)          111.68 -0.022418    2.51    114.19   
    60. A(C   2,C   3,N   4)          127.44  0.014789   -1.71    125.72   
    61. A(C   3,N   4,C   5)          112.84  0.002825   -0.67    112.17   
    62. A(C   6,C   5,C  10)          118.85 -0.002054    0.35    119.20   
    63. A(N   4,C   5,C   6)          125.92  0.002040   -0.41    125.50   
    64. A(N   4,C   5,C  10)          115.24  0.000014    0.06    115.30   
    65. A(C   7,C   6,H  26)          121.43 -0.002732    0.34    121.77   
    66. A(C   5,C   6,H  26)          118.64 -0.002999    0.38    119.02   
    67. A(C   5,C   6,C   7)          119.93  0.005730   -0.72    119.21   
    68. A(C   8,C   7,H  27)          120.31  0.002432   -0.28    120.04   
    69. A(C   6,C   7,C   8)          120.27 -0.004726    0.54    120.81   
    70. A(C   6,C   7,H  27)          119.41  0.002294   -0.26    119.15   
    71. A(C   7,C   8,C   9)          120.77 -0.003448    0.37    121.15   
    72. A(C   7,C   8,H  28)          119.71  0.000718   -0.04    119.67   
    73. A(C   9,C   8,H  28)          119.52  0.002731   -0.34    119.18   
    74. A(C   8,C   9,C  10)          118.26  0.002676   -0.30    117.96   
    75. A(C  10,C   9,H  29)          120.77 -0.000646    0.05    120.81   
    76. A(C   8,C   9,H  29)          120.97 -0.002030    0.25    121.22   
    77. A(C   5,C  10,C   9)          121.92  0.001822   -0.24    121.67   
    78. A(C   9,C  10,S  11)          129.40 -0.000907   -0.16    129.25   
    79. A(C   5,C  10,S  11)          108.68 -0.000915    0.40    109.08   
    80. A(C   3,S  11,C  10)           91.55  0.020493   -2.30     89.25   
    81. A(C   2,C  12,H  30)          120.03  0.002344   -0.36    119.67   
    82. A(C   2,C  12,C  13)          123.50  0.003653   -0.53    122.97   
    83. A(C  13,C  12,H  30)          116.47 -0.005996    0.89    117.36   
    84. A(C  12,C  13,C  14)          120.91 -0.004519    0.45    121.36   
    85. A(C  14,C  13,C  24)          119.98  0.002702   -0.31    119.67   
    86. A(C  12,C  13,C  24)          119.11  0.001817   -0.14    118.97   
    87. A(C  15,C  14,H  31)          118.87 -0.002301    0.34    119.21   
    88. A(C  13,C  14,H  31)          120.10  0.001571   -0.23    119.87   
    89. A(C  13,C  14,C  15)          121.03  0.000730   -0.11    120.92   
    90. A(C  16,C  15,H  32)          120.71  0.003409   -0.46    120.25   
    91. A(C  14,C  15,H  32)          118.97 -0.000307    0.09    119.06   
    92. A(C  14,C  15,C  16)          120.32 -0.003102    0.37    120.70   
    93. A(C  15,C  16,C  17)          121.06 -0.005456    0.61    121.67   
    94. A(C  15,C  16,C  25)          119.16  0.000265   -0.01    119.15   
    95. A(C  17,C  16,C  25)          119.78  0.005191   -0.60    119.18   
    96. A(C  18,C  17,H  33)          119.03 -0.000969    0.23    119.25   
    97. A(C  16,C  17,H  33)          120.35  0.003747   -0.48    119.87   
    98. A(C  16,C  17,C  18)          120.63 -0.002778    0.25    120.87   
    99. A(C  17,C  18,C  19)          119.86 -0.002375    0.36    120.22   
   100. A(H  34,C  18,N  40)           26.87  0.000185   -0.03     26.84   
   101. A(C  17,C  18,N  40)          134.16  0.001811   -0.21    133.95   
   102. A(C  19,C  18,N  40)          101.35  0.000445   -0.11    101.24   
   103. A(C  19,C  18,H  34)          119.99  0.000661   -0.15    119.85   
   104. A(C  17,C  18,H  34)          120.15  0.001714   -0.21    119.93   
   105. A(C  18,C  19,C  20)          120.63 -0.000732    0.06    120.68   
   106. A(C  20,C  19,H  35)          120.11  0.002681   -0.31    119.80   
   107. A(C  18,C  19,H  35)          119.26 -0.001949    0.25    119.51   
   108. A(C  19,C  20,C  21)          121.23 -0.007630    0.79    122.02   
   109. A(C  21,C  20,C  25)          118.87  0.002861   -0.22    118.65   
   110. A(C  19,C  20,C  25)          119.91  0.004768   -0.58    119.33   
   111. A(C  20,C  21,C  22)          120.28 -0.000895    0.18    120.46   
   112. A(C  22,C  21,H  36)          118.39 -0.001756    0.24    118.63   
   113. A(C  20,C  21,H  36)          121.33  0.002651   -0.42    120.91   
   114. A(C  23,C  22,H  37)          118.34  0.000057   -0.03    118.31   
   115. A(C  21,C  22,H  37)          118.31 -0.005705    0.83    119.14   
   116. A(C  21,C  22,C  23)          123.35  0.005648   -0.81    122.54   
   117. A(C  22,C  23,C  24)          115.73 -0.013532    1.64    117.37   
   118. A(C   1,C  23,C  24)          122.40  0.007793   -0.87    121.53   
   119. A(C   1,C  23,C  22)          121.87  0.005739   -0.77    121.10   
   120. A(C  23,C  24,C  25)          121.54  0.004186   -0.62    120.92   
   121. A(C  13,C  24,C  25)          118.93 -0.002937    0.40    119.33   
   122. A(C  13,C  24,C  23)          119.53 -0.001250    0.22    119.75   
   123. A(C  20,C  25,C  24)          120.23  0.001731   -0.17    120.05   
   124. A(C  16,C  25,C  24)          120.58  0.002341   -0.34    120.24   
   125. A(C  16,C  25,C  20)          119.20 -0.004073    0.52    119.71   
   126. A(C  18,H  34,N  40)          148.23 -0.000356    0.07    148.29   
   127. A(C  19,H  35,N  40)          116.67  0.000682   -0.04    116.63   
   128. A(H  42,C  38,H  43)          108.10 -0.003734    0.62    108.72   
   129. A(H  41,C  38,H  43)          108.10 -0.003731    0.62    108.72   
   130. A(C  39,C  38,H  43)          110.81  0.003573   -0.59    110.22   
   131. A(H  41,C  38,H  42)          108.10 -0.003752    0.62    108.72   
   132. A(C  39,C  38,H  42)          110.81  0.003577   -0.60    110.21   
   133. A(C  39,C  38,H  41)          110.81  0.003551   -0.59    110.22   
   134. L(C  38,C  39,N  40,H  43, 2) 180.00  0.000051   -0.00    180.00   
   135. L(C  38,C  39,N  40,H  43, 1) 180.00 -0.000110    0.01    180.01   
   136. A(H  34,N  40,H  35)           21.95  0.000897   -0.10     21.84   
   137. A(C  18,N  40,H  35)           18.62  0.000770   -0.08     18.54   
   138. A(H  35,N  40,C  39)          165.50 -0.000511    0.05    165.55   
   139. A(H  34,N  40,C  39)          162.05 -0.000737    0.09    162.15   
   140. A(C  18,N  40,C  39)          166.95 -0.000566    0.06    167.01   
   141. D(C   3,C   2,C   1,C  23)    180.00  0.000001   -0.00    180.00   
   142. D(C  12,C   2,C   1,C  23)     -0.00  0.000003   -0.00     -0.00   
   143. D(C  12,C   2,C   1,O   0)    179.99  0.000001    0.01    180.00   
   144. D(C   3,C   2,C   1,O   0)     -0.01 -0.000001    0.00     -0.00   
   145. D(N   4,C   3,C   2,C   1)     -0.04  0.000001   -0.00     -0.04   
   146. D(N   4,C   3,C   2,C  12)    179.96 -0.000001   -0.00    179.96   
   147. D(S  11,C   3,C   2,C   1)    179.96  0.000002   -0.00    179.96   
   148. D(S  11,C   3,C   2,C  12)     -0.04 -0.000000   -0.00     -0.04   
   149. D(C   5,N   4,C   3,C   2)    180.00 -0.000000    0.00    180.00   
   150. D(C   5,N   4,C   3,S  11)     -0.00 -0.000000    0.00     -0.00   
   151. D(C  10,C   5,N   4,C   3)      0.01  0.000002   -0.00      0.01   
   152. D(C   6,C   5,N   4,C   3)   -179.99  0.000002   -0.00   -179.99   
   153. D(H  26,C   6,C   5,C  10)   -180.00  0.000001   -0.00   -180.00   
   154. D(C   7,C   6,C   5,N   4)   -180.00  0.000001   -0.00   -180.00   
   155. D(H  26,C   6,C   5,N   4)      0.00  0.000001   -0.00      0.00   
   156. D(C   7,C   6,C   5,C  10)      0.00  0.000001   -0.00      0.00   
   157. D(H  27,C   7,C   6,H  26)     -0.00 -0.000000    0.00     -0.00   
   158. D(C   8,C   7,C   6,C   5)      0.00  0.000001   -0.00      0.00   
   159. D(H  27,C   7,C   6,C   5)    180.00 -0.000000    0.00    180.00   
   160. D(C   8,C   7,C   6,H  26)   -180.00  0.000001   -0.00   -180.00   
   161. D(H  28,C   8,C   7,H  27)      0.00  0.000001   -0.00     -0.00   
   162. D(H  28,C   8,C   7,C   6)    180.00 -0.000000    0.00    180.00   
   163. D(C   9,C   8,C   7,H  27)    180.00  0.000000   -0.00    180.00   
   164. D(C   9,C   8,C   7,C   6)     -0.01 -0.000001    0.00     -0.00   
   165. D(H  29,C   9,C   8,C   7)   -180.00  0.000001   -0.00   -180.00   
   166. D(C  10,C   9,C   8,H  28)    180.00 -0.000000    0.00    180.00   
   167. D(H  29,C   9,C   8,H  28)     -0.00  0.000000    0.00     -0.00   
   168. D(C  10,C   9,C   8,C   7)      0.00  0.000001   -0.00      0.00   
   169. D(S  11,C  10,C   5,N   4)     -0.01 -0.000002    0.00     -0.00   
   170. D(C   9,C  10,C   5,C   6)     -0.01 -0.000002    0.00     -0.00   
   171. D(C   9,C  10,C   5,N   4)    179.99 -0.000002    0.00    180.00   
   172. D(S  11,C  10,C   9,H  29)      0.00  0.000002   -0.00      0.00   
   173. D(C   5,C  10,C   9,C   8)      0.00  0.000001   -0.00      0.00   
   174. D(S  11,C  10,C   9,C   8)   -180.00  0.000002   -0.00   -180.00   
   175. D(C   5,C  10,C   9,H  29)   -180.00  0.000001   -0.00   -180.00   
   176. D(S  11,C  10,C   5,C   6)    179.99 -0.000002    0.00    180.00   
   177. D(C   3,S  11,C  10,C   9)   -180.00  0.000002   -0.00   -180.00   
   178. D(C   3,S  11,C  10,C   5)      0.00  0.000002   -0.00      0.00   
   179. D(C  10,S  11,C   3,N   4)      0.00 -0.000001    0.00      0.00   
   180. D(C  10,S  11,C   3,C   2)    180.00 -0.000000    0.00    180.00   
   181. D(H  30,C  12,C   2,C   3)     -0.01 -0.000004    0.00     -0.00   
   182. D(H  30,C  12,C   2,C   1)    179.99 -0.000006    0.00    180.00   
   183. D(C  13,C  12,C   2,C   3)    180.00 -0.000003    0.00    180.00   
   184. D(C  13,C  12,C   2,C   1)     -0.00 -0.000005    0.00      0.00   
   185. D(C  24,C  13,C  12,H  30)   -179.99  0.000001   -0.00   -179.99   
   186. D(C  24,C  13,C  12,C   2)      0.00  0.000000   -0.00      0.00   
   187. D(C  14,C  13,C  12,H  30)      0.01 -0.000001   -0.00      0.00   
   188. D(C  14,C  13,C  12,C   2)   -180.00 -0.000002   -0.00   -180.00   
   189. D(H  31,C  14,C  13,C  24)   -180.00 -0.000001    0.00   -180.00   
   190. D(H  31,C  14,C  13,C  12)      0.00  0.000001    0.00      0.00   
   191. D(C  15,C  14,C  13,C  24)      0.00 -0.000003    0.00      0.00   
   192. D(C  15,C  14,C  13,C  12)   -180.00 -0.000001    0.00   -179.99   
   193. D(H  32,C  15,C  14,H  31)      0.00  0.000005   -0.00      0.00   
   194. D(H  32,C  15,C  14,C  13)   -180.00  0.000007   -0.00   -180.00   
   195. D(C  16,C  15,C  14,H  31)    180.00 -0.000002    0.00    180.00   
   196. D(C  16,C  15,C  14,C  13)     -0.00  0.000000   -0.00     -0.00   
   197. D(C  25,C  16,C  15,H  32)    180.00 -0.000009   -0.00    180.00   
   198. D(C  25,C  16,C  15,C  14)      0.00 -0.000002   -0.00      0.00   
   199. D(C  17,C  16,C  15,H  32)     -0.00  0.000027   -0.01     -0.01   
   200. D(C  17,C  16,C  15,C  14)   -180.00  0.000034   -0.01   -180.01   
   201. D(H  33,C  17,C  16,C  15)     -0.00  0.000027   -0.00     -0.01   
   202. D(C  18,C  17,C  16,C  25)      0.00  0.000006   -0.01     -0.01   
   203. D(C  18,C  17,C  16,C  15)   -179.99 -0.000030   -0.01   -180.00   
   204. D(H  33,C  17,C  16,C  25)    180.00  0.000063   -0.01    179.99   
   205. D(N  40,C  18,C  17,H  33)     29.08  0.000498   -0.09     28.99   
   206. D(H  34,C  18,C  17,H  33)      0.01 -0.000415    0.04      0.05   
   207. D(H  34,C  18,C  17,C  16)   -180.00 -0.000359    0.04   -179.96   
   208. D(N  40,C  18,C  17,C  16)   -150.92  0.000554   -0.09   -151.02   
   209. D(C  19,C  18,C  17,H  33)   -180.00  0.000043    0.01   -179.99   
   210. D(C  19,C  18,C  17,C  16)     -0.00  0.000099    0.01      0.01   
   211. D(H  35,C  19,C  18,N  40)    -20.83  0.000190    0.00    -20.83   
   212. D(H  35,C  19,C  18,H  34)     -0.00  0.000324   -0.03     -0.03   
   213. D(H  35,C  19,C  18,C  17)   -180.00 -0.000134    0.00   -179.99   
   214. D(C  20,C  19,C  18,N  40)    159.17  0.000161    0.00    159.17   
   215. D(C  20,C  19,C  18,H  34)    180.00  0.000295   -0.03    179.97   
   216. D(C  20,C  19,C  18,C  17)      0.00 -0.000163   -0.00      0.00   
   217. D(C  25,C  20,C  19,H  35)    180.00  0.000091   -0.01    179.99   
   218. D(C  25,C  20,C  19,C  18)      0.00  0.000120   -0.00     -0.00   
   219. D(C  21,C  20,C  19,H  35)     -0.00  0.000046   -0.00     -0.01   
   220. D(C  21,C  20,C  19,C  18)   -180.00  0.000075   -0.00   -180.00   
   221. D(H  36,C  21,C  20,C  25)    180.00 -0.000024    0.01    180.01   
   222. D(H  36,C  21,C  20,C  19)     -0.00  0.000021    0.01      0.00   
   223. D(C  22,C  21,C  20,C  25)     -0.00 -0.000023    0.01      0.00   
   224. D(C  22,C  21,C  20,C  19)    180.00  0.000022    0.00    180.00   
   225. D(H  37,C  22,C  21,H  36)     -0.00  0.000006   -0.00     -0.00   
   226. D(H  37,C  22,C  21,C  20)    180.00  0.000005    0.00    180.00   
   227. D(C  23,C  22,C  21,H  36)   -180.00  0.000017   -0.01   -180.00   
   228. D(C  23,C  22,C  21,C  20)      0.00  0.000016   -0.00      0.00   
   229. D(C  24,C  23,C  22,H  37)   -180.00  0.000015   -0.01   -180.00   
   230. D(C  24,C  23,C  22,C  21)     -0.00  0.000003   -0.00     -0.00   
   231. D(C   1,C  23,C  22,H  37)      0.00  0.000007   -0.01     -0.00   
   232. D(C   1,C  23,C  22,C  21)   -180.00 -0.000004   -0.00   -180.00   
   233. D(C  24,C  23,C   1,C   2)      0.01  0.000005   -0.00      0.00   
   234. D(C  24,C  23,C   1,O   0)   -179.99  0.000007   -0.01   -180.00   
   235. D(C  22,C  23,C   1,C   2)   -180.00  0.000012   -0.00   -180.00   
   236. D(C  22,C  23,C   1,O   0)      0.01  0.000015   -0.01     -0.00   
   237. D(C  25,C  24,C  23,C  22)     -0.00 -0.000015    0.00      0.00   
   238. D(C  25,C  24,C  23,C   1)    180.00 -0.000007    0.00    180.00   
   239. D(C  13,C  24,C  23,C  22)   -180.00 -0.000017    0.00   -180.00   
   240. D(C  13,C  24,C  23,C   1)     -0.00 -0.000010    0.00      0.00   
   241. D(C  25,C  24,C  13,C  14)      0.00  0.000007   -0.00     -0.00   
   242. D(C  25,C  24,C  13,C  12)    180.00  0.000004   -0.00    180.00   
   243. D(C  23,C  24,C  13,C  14)    180.00  0.000009    0.00    180.00   
   244. D(C  23,C  24,C  13,C  12)     -0.00  0.000007    0.00     -0.00   
   245. D(C  20,C  25,C  24,C  23)      0.00  0.000007   -0.00      0.00   
   246. D(C  20,C  25,C  24,C  13)   -180.00  0.000010   -0.00   -180.00   
   247. D(C  16,C  25,C  24,C  23)   -180.00 -0.000010   -0.00   -180.00   
   248. D(C  16,C  25,C  24,C  13)      0.00 -0.000008   -0.00     -0.00   
   249. D(C  24,C  25,C  20,C  21)     -0.00  0.000012   -0.00     -0.00   
   250. D(C  24,C  25,C  20,C  19)    180.00 -0.000032    0.00    180.00   
   251. D(C  16,C  25,C  20,C  21)    180.00  0.000030   -0.00    180.00   
   252. D(C  16,C  25,C  20,C  19)     -0.00 -0.000015    0.00     -0.00   
   253. D(C  24,C  25,C  16,C  17)    180.00 -0.000030    0.01    180.01   
   254. D(C  24,C  25,C  16,C  15)     -0.00  0.000005    0.00     -0.00   
   255. D(C  20,C  25,C  16,C  17)     -0.00 -0.000048    0.01      0.01   
   256. D(C  20,C  25,C  16,C  15)    180.00 -0.000013    0.00    180.00   
   257. D(N  40,H  34,C  18,C  19)    -50.48  0.000123   -0.00    -50.48   
   258. D(N  40,H  34,C  18,C  17)    129.52  0.000582   -0.03    129.48   
   259. D(N  40,H  35,C  19,C  20)   -156.48 -0.000085    0.00   -156.48   
   260. D(N  40,H  35,C  19,C  18)     23.51 -0.000114   -0.00     23.51   
   261. D(H  35,N  40,C  18,H  34)   -127.75 -0.000235    0.02   -127.73   
   262. D(H  35,N  40,C  18,C  19)      9.29  0.000132   -0.04      9.25   
   263. D(H  35,N  40,C  18,C  17)    163.83 -0.000949    0.16    163.99   
   264. D(C  39,N  40,C  18,H  34)      0.81  0.000125   -0.03      0.78   
   265. D(C  39,N  40,C  18,C  19)    137.86  0.000492   -0.09    137.77   
   266. D(C  39,N  40,H  34,C  18)   -179.41  0.000093   -0.02   -179.43   
   267. D(C  39,N  40,C  18,C  17)    -67.61 -0.000589    0.11    -67.50   
   268. D(H  35,N  40,C  38,H  43)      2.43  0.000031   -0.02      2.42   
   269. D(H  35,N  40,C  38,H  41)    122.43  0.000015   -0.01    122.42   
   270. D(H  34,N  40,C  38,H  43)    -82.75 -0.000026    0.00    -82.75   
   271. D(H  34,N  40,C  38,H  42)    157.25 -0.000030    0.01    157.25   
   272. D(H  34,N  40,C  38,H  41)     37.25 -0.000041    0.01     37.26   
   273. D(C  18,N  40,C  38,H  43)    -82.98  0.000015    0.01    -82.97   
   274. D(C  18,N  40,C  38,H  42)    157.02  0.000011    0.01    157.03   
   275. D(C  18,N  40,C  38,H  41)     37.02 -0.000001    0.01     37.03   
   276. D(H  34,N  40,H  35,C  19)    -23.54 -0.000325    0.07    -23.46   
   277. D(C  18,N  40,H  35,C  19)    -13.12 -0.000401    0.05    -13.07   
   278. D(H  35,N  40,C  38,H  42)   -117.57  0.000026   -0.01   -117.58   
   279. D(C  39,N  40,H  35,C  19)   -148.31 -0.000221    0.03   -148.28   
   280. D(H  35,N  40,H  34,C  18)     42.47 -0.000111    0.03     42.51   
    ----------------------------------------------------------------------------

         *************************************************************
         *                GEOMETRY OPTIMIZATION CYCLE   2            *
         *************************************************************
---------------------------------
CARTESIAN COORDINATES (ANGSTROEM)
---------------------------------
  O     0.745252    0.838412   -2.280967
  C     0.177243    0.460127   -1.237069
  C     0.892902   -0.023099   -0.076303
  C     2.344093   -0.099979   -0.052007
  N     3.135146    0.237591   -1.019653
  C     4.440482    0.053722   -0.701108
  C     5.526323    0.326798   -1.537103
  C     6.806740    0.089563   -1.077727
  C     7.023522   -0.416179    0.203034
  C     5.966210   -0.695140    1.050892
  C     4.678025   -0.455701    0.586921
  S     3.172392   -0.693968    1.383663
  C     0.196804   -0.426865    1.048795
  C    -1.205444   -0.394355    1.132967
  C    -1.879742   -0.813703    2.295605
  C    -3.253659   -0.778054    2.367993
  C    -4.020998   -0.319149    1.275946
  C    -5.421967   -0.274297    1.327473
  C    -6.160489    0.180194    0.243448
  C    -5.519230    0.598000   -0.910975
  C    -4.116806    0.568721   -1.003233
  C    -3.436949    0.986077   -2.161118
  C    -2.059292    0.943682   -2.216607
  C    -1.273688    0.491523   -1.144328
  C    -1.947957    0.070703    0.022040
  C    -3.359384    0.106592    0.098393
  H     5.340740    0.717882   -2.525363
  H     7.644935    0.300830   -1.724248
  H     8.033021   -0.594888    0.543603
  H     6.132649   -1.086505    2.042224
  H     0.738707   -0.787278    1.913439
  H    -1.315733   -1.169560    3.146269
  H    -3.740081   -1.106989    3.274939
  H    -5.938302   -0.596684    2.220362
  H    -7.238680    0.208923    0.299872
  H    -6.105271    0.949701   -1.747826
  H    -3.978617    1.345507   -3.023233
  H    -1.557927    1.270041   -3.118384
  C   -14.589002    3.862517   -0.447085
  C   -13.196648    3.496492   -0.416312
  N   -12.091701    3.206103   -0.391799
  H   -15.115104    3.413998    0.395613
  H   -14.694972    4.945780   -0.389114
  H   -15.049427    3.515043   -1.371936

----------------------------
CARTESIAN COORDINATES (A.U.)
----------------------------
  NO LB    ZA    FRAG    MASS        X           Y           Z
   0 O   8.0000    0    15.999    1.408322    1.584369   -4.310402
   1 C   6.0000    0    12.011    0.334941    0.869515   -2.337721
   2 C   6.0000    0    12.011    1.687340   -0.043652   -0.144191
   3 C   6.0000    0    12.011    4.429694   -0.188933   -0.098280
   4 N   7.0000    0    14.007    5.924567    0.448983   -1.926865
   5 C   6.0000    0    12.011    8.391296    0.101519   -1.324902
   6 C   6.0000    0    12.011   10.443237    0.617559   -2.904704
   7 C   6.0000    0    12.011   12.862874    0.169249   -2.036609
   8 C   6.0000    0    12.011   13.272534   -0.786464    0.383678
   9 C   6.0000    0    12.011   11.274503   -1.313624    1.985898
  10 C   6.0000    0    12.011    8.840186   -0.861151    1.109121
  11 S  16.0000    0    32.060    5.994952   -1.311410    2.614744
  12 C   6.0000    0    12.011    0.371906   -0.806658    1.981935
  13 C   6.0000    0    12.011   -2.277958   -0.745222    2.140997
  14 C   6.0000    0    12.011   -3.552198   -1.537676    4.338065
  15 C   6.0000    0    12.011   -6.148525   -1.470309    4.474859
  16 C   6.0000    0    12.011   -7.598586   -0.603105    2.411188
  17 C   6.0000    0    12.011  -10.246034   -0.518346    2.508560
  18 C   6.0000    0    12.011  -11.641636    0.340517    0.460049
  19 C   6.0000    0    12.011  -10.429833    1.130056   -1.721494
  20 C   6.0000    0    12.011   -7.779636    1.074727   -1.895836
  21 C   6.0000    0    12.011   -6.494893    1.863416   -4.083922
  22 C   6.0000    0    12.011   -3.891499    1.783300   -4.188780
  23 C   6.0000    0    12.011   -2.406922    0.928843   -2.162467
  24 C   6.0000    0    12.011   -3.681105    0.133610    0.041649
  25 C   6.0000    0    12.011   -6.348316    0.201429    0.185937
  26 H   1.0000    0     1.008   10.092536    1.356600   -4.772244
  27 H   1.0000    0     1.008   14.446833    0.568485   -3.258356
  28 H   1.0000    0     1.008   15.180209   -1.124176    1.027261
  29 H   1.0000    0     1.008   11.589026   -2.053196    3.859243
  30 H   1.0000    0     1.008    1.395954   -1.487739    3.615876
  31 H   1.0000    0     1.008   -2.486375   -2.210149    5.945588
  32 H   1.0000    0     1.008   -7.067728   -2.091906    6.188738
  33 H   1.0000    0     1.008  -11.221764   -1.127570    4.195877
  34 H   1.0000    0     1.008  -13.679124    0.394807    0.566676
  35 H   1.0000    0     1.008  -11.537289    1.794674   -3.302913
  36 H   1.0000    0     1.008   -7.518496    2.542639   -5.713082
  37 H   1.0000    0     1.008   -2.944055    2.400029   -5.892891
  38 C   6.0000    0    12.011  -27.569218    7.299099   -0.844868
  39 C   6.0000    0    12.011  -24.938050    6.607413   -0.786716
  40 N   7.0000    0    14.007  -22.850004    6.058656   -0.740393
  41 H   1.0000    0     1.008  -28.563406    6.451522    0.747601
  42 H   1.0000    0     1.008  -27.769472    9.346170   -0.735319
  43 H   1.0000    0     1.008  -28.439295    6.642469   -2.592583

      -----------------------------------------------------------      
     |                   =====================                   |     
     |                           x T B                           |     
     |                   =====================                   |     
     |                         S. Grimme                         |     
     |          Mulliken Center for Theoretical Chemistry        |     
[...]
   251. D(C  16,C  25,C  20,C  21)    179.99 -0.000001    0.00    179.99   
   252. D(C  16,C  25,C  20,C  19)     -0.01  0.000001    0.00     -0.01   
   253. D(C  24,C  25,C  16,C  17)   -179.99 -0.000000    0.01   -179.99   
   254. D(C  24,C  25,C  16,C  15)      0.01 -0.000000    0.00      0.01   
   255. D(C  20,C  25,C  16,C  17)      0.02  0.000002    0.00      0.02   
   256. D(C  20,C  25,C  16,C  15)   -179.98  0.000002    0.00   -179.98   
   257. D(N  40,H  34,C  18,C  19)    -49.67  0.000013    0.00    -49.67   
   258. D(N  40,H  34,C  18,C  17)    130.13  0.000036    0.00    130.13   
   259. D(N  40,H  35,C  19,C  20)   -163.03  0.000029    0.01   -163.03   
   260. D(N  40,H  35,C  19,C  18)     16.98  0.000037    0.01     16.99   
   261. D(H  35,N  40,C  18,H  34)   -129.39 -0.000029   -0.00   -129.39   
   262. D(H  35,N  40,C  18,C  19)      7.47  0.000007    0.00      7.47   
   263. D(H  35,N  40,C  18,C  17)    167.60 -0.000042   -0.01    167.59   
   264. D(C  39,N  40,C  18,H  34)     -6.73  0.000001    0.16     -6.57   
   265. D(C  39,N  40,C  18,C  19)    130.12  0.000037    0.17    130.29   
   266. D(C  39,N  40,H  34,C  18)    176.36  0.000002    0.13    176.49   
   267. D(C  39,N  40,C  18,C  17)    -69.74 -0.000012    0.15    -69.59   
   268. D(H  35,N  40,C  38,H  43)     18.83 -0.000008    0.12     18.95   
   269. D(H  35,N  40,C  38,H  41)    138.83 -0.000008    0.12    138.95   
   270. D(H  34,N  40,C  38,H  43)    -92.61  0.000003   -0.04    -92.65   
   271. D(H  34,N  40,C  38,H  42)    147.41  0.000001   -0.04    147.38   
   272. D(H  34,N  40,C  38,H  41)     27.39  0.000003   -0.04     27.35   
   273. D(C  18,N  40,C  38,H  43)    -89.31  0.000006   -0.08    -89.38   
   274. D(C  18,N  40,C  38,H  42)    150.71  0.000005   -0.07    150.64   
   275. D(C  18,N  40,C  38,H  41)     30.69  0.000007   -0.08     30.62   
   276. D(H  34,N  40,H  35,C  19)    -19.03 -0.000027   -0.01    -19.04   
   277. D(C  18,N  40,H  35,C  19)     -9.69 -0.000005   -0.01     -9.69   
   278. D(H  35,N  40,C  38,H  42)   -101.14 -0.000010    0.12   -101.02   
   279. D(C  39,N  40,H  35,C  19)   -174.29  0.000032   -0.05   -174.34   
   280. D(H  35,N  40,H  34,C  18)     42.28 -0.000046   -0.01     42.27   
    ----------------------------------------------------------------------------
                 *******************************************************
                 *** FINAL ENERGY EVALUATION AT THE STATIONARY POINT ***
                 ***               (AFTER   32 CYCLES)               ***
                 *******************************************************
---------------------------------
CARTESIAN COORDINATES (ANGSTROEM)
---------------------------------
  O     0.596683    0.883215   -2.213006
  C     0.007621    0.532508   -1.202254
  C     0.687479    0.010763    0.002395
  C     2.115045   -0.089885   -0.009508
  N     2.890735    0.238610   -0.971250
  C     4.199712    0.035452   -0.707941
  C     5.259081    0.306058   -1.573557
  C     6.543791    0.042975   -1.154141
  C     6.795104   -0.485286    0.112945
  C     5.764367   -0.762244    0.989287
  C     4.468459   -0.501623    0.577768
  S     2.986040   -0.740014    1.436035
  C    -0.033118   -0.369080    1.106597
  C    -1.436424   -0.289394    1.172888
  C    -2.157035   -0.685447    2.319832
  C    -3.517606   -0.599201    2.363698
  C    -4.260619   -0.107436    1.257023
  C    -5.656100   -0.009486    1.277880
  C    -6.350782    0.474823    0.180289
  C    -5.677613    0.871680   -0.956496
  C    -4.275130    0.792364   -1.026838
  C    -3.550313    1.188700   -2.174214
  C    -2.184085    1.097429   -2.208194
  C    -1.461073    0.609741   -1.109513
  C    -2.149001    0.207616    0.046797
  C    -3.560163    0.297338    0.092312
  H     5.045564    0.714093   -2.548028
  H     7.374109    0.247350   -1.813461
  H     7.813159   -0.681541    0.414449
  H     5.957165   -1.171137    1.969072
  H     0.493852   -0.748520    1.973282
  H    -1.605358   -1.061433    3.169689
  H    -4.057034   -0.905852    3.248317
  H    -6.191827   -0.317171    2.164172
  H    -7.427417    0.543985    0.219250
  H    -6.222198    1.249142   -1.809220
  H    -4.094979    1.566486   -3.027347
  H    -1.623461    1.397939   -3.081177
  C   -13.259821    3.258394   -0.398105
  C   -11.893760    2.825068   -0.308382
  N   -10.806556    2.480150   -0.238638
  H   -13.876752    2.659117    0.270476
  H   -13.328496    4.307164   -0.111578
  H   -13.613128    3.138716   -1.421615

----------------------------
CARTESIAN COORDINATES (A.U.)
----------------------------
  NO LB    ZA    FRAG    MASS        X           Y           Z
   0 O   8.0000    0    15.999    1.127567    1.669035   -4.181974
   1 C   6.0000    0    12.011    0.014402    1.006294   -2.271930
   2 C   6.0000    0    12.011    1.299148    0.020339    0.004526
   3 C   6.0000    0    12.011    3.996856   -0.169858   -0.017967
   4 N   7.0000    0    14.007    5.462697    0.450907   -1.835397
   5 C   6.0000    0    12.011    7.936306    0.066994   -1.337815
   6 C   6.0000    0    12.011    9.938222    0.578366   -2.973592
   7 C   6.0000    0    12.011   12.365973    0.081212   -2.181010
   8 C   6.0000    0    12.011   12.840886   -0.917058    0.213436
   9 C   6.0000    0    12.011   10.893076   -1.440432    1.869482
  10 C   6.0000    0    12.011    8.444163   -0.947929    1.091824
  11 S  16.0000    0    32.060    5.642797   -1.398424    2.713714
  12 C   6.0000    0    12.011   -0.062585   -0.697461    2.091166
  13 C   6.0000    0    12.011   -2.714448   -0.546876    2.216437
  14 C   6.0000    0    12.011   -4.076206   -1.295306    4.383846
  15 C   6.0000    0    12.011   -6.647311   -1.132327    4.466743
  16 C   6.0000    0    12.011   -8.051403   -0.203025    2.375429
  17 C   6.0000    0    12.011  -10.688479   -0.017926    2.414843
  18 C   6.0000    0    12.011  -12.001239    0.897286    0.340697
  19 C   6.0000    0    12.011  -10.729133    1.647237   -1.807515
  20 C   6.0000    0    12.011   -8.078826    1.497352   -1.940443
  21 C   6.0000    0    12.011   -6.709120    2.246318   -4.108670
  22 C   6.0000    0    12.011   -4.127322    2.073841   -4.172881
  23 C   6.0000    0    12.011   -2.761028    1.152243   -2.096676
  24 C   6.0000    0    12.011   -4.061023    0.392337    0.088434
  25 C   6.0000    0    12.011   -6.727732    0.561887    0.174445
  26 H   1.0000    0     1.008    9.534733    1.349440   -4.815074
  27 H   1.0000    0     1.008   13.935047    0.467425   -3.426944
  28 H   1.0000    0     1.008   14.764730   -1.287926    0.783195
  29 H   1.0000    0     1.008   11.257411   -2.213127    3.721008
  30 H   1.0000    0     1.008    0.933244   -1.414497    3.728963
  31 H   1.0000    0     1.008   -3.033688   -2.005819    5.989843
  32 H   1.0000    0     1.008   -7.666683   -1.711812    6.138429
  33 H   1.0000    0     1.008  -11.700857   -0.599366    4.089693
  34 H   1.0000    0     1.008  -14.035784    1.027982    0.414322
  35 H   1.0000    0     1.008  -11.758250    2.360535   -3.418930
  36 H   1.0000    0     1.008   -7.738388    2.960230   -5.720856
  37 H   1.0000    0     1.008   -3.067897    2.641721   -5.822581
  38 C   6.0000    0    12.011  -25.057429    6.157472   -0.752310
  39 C   6.0000    0    12.011  -22.475950    5.338605   -0.582758
  40 N   7.0000    0    14.007  -20.421432    4.686804   -0.450960
  41 H   1.0000    0     1.008  -26.223261    5.025003    0.511125
  42 H   1.0000    0     1.008  -25.187207    8.139361   -0.210851
  43 H   1.0000    0     1.008  -25.725085    5.931313   -2.686462

      -----------------------------------------------------------      
     |                   =====================                   |     
     |                           x T B                           |     
     |                   =====================                   |     
     |                         S. Grimme                         |     
     |          Mulliken Center for Theoretical Chemistry        |     
     |                    University of Bonn                     |     
      -----------------------------------------------------------      

   * xtb version 6.6.1 (8d0f1dd) compiled by 'stahn@M-Bot' on 2023-08-01

   xtb is free software: you can redistribute it and/or modify it under
   the terms of the GNU Lesser General Public License as published by
   the Free Software Foundation, either version 3 of the License, or
   (at your option) any later version.
   
   xtb is distributed in the hope that it will be useful,
   but WITHOUT ANY WARRANTY; without even the implied warranty of
   MERCHANTABILITY or FITNESS FOR A PARTICULAR PURPOSE.  See the
   GNU Lesser General Public License for more details.
   
   Cite this work as:
   * C. Bannwarth, E. Caldeweyher, S. Ehlert, A. Hansen, P. Pracht,
     J. Seibert, S. Spicher, S. Grimme, WIREs Comput. Mol. Sci., 2020, 11,
     e01493. DOI: 10.1002/wcms.1493
   
   for GFN2-xTB:
   * C. Bannwarth, S. Ehlert and S. Grimme., J. Chem. Theory Comput., 2019,
     15, 1652-1671. DOI: 10.1021/acs.jctc.8b01176
   for GFN1-xTB:
   * S. Grimme, C. Bannwarth, P. Shushkov, J. Chem. Theory Comput., 2017,
     13, 1989-2009. DOI: 10.1021/acs.jctc.7b00118
   for GFN0-xTB:
   * P. Pracht, E. Caldeweyher, S. Ehlert, S. Grimme, ChemRxiv, 2019, preprint.
     DOI: 10.26434/chemrxiv.8326202.v1
   for GFN-FF:
   * S. Spicher and S. Grimme, Angew. Chem. Int. Ed., 2020, 59, 15665-15673.
     DOI: 10.1002/anie.202004239
   
   for ALPB and GBSA implicit solvation:
   * S. Ehlert, M. Stahn, S. Spicher, S. Grimme, J. Chem. Theory Comput.,
     2021, 17, 4250-4261. DOI: 10.1021/acs.jctc.1c00471
   
   for DFT-D4:
   * E. Caldeweyher, C. Bannwarth and S. Grimme, J. Chem. Phys., 2017,
     147, 034112. DOI: 10.1063/1.4993215
   * E. Caldeweyher, S. Ehlert, A. Hansen, H. Neugebauer, S. Spicher,
     C. Bannwarth and S. Grimme, J. Chem. Phys., 2019, 150, 154122.
     DOI: 10.1063/1.5090222
   * E. Caldeweyher, J.-M. Mewes, S. Ehlert and S. Grimme, Phys. Chem. Chem. Phys.
     2020, 22, 8499-8512. DOI: 10.1039/D0CP00502A
   
   for sTDA-xTB:
   * S. Grimme and C. Bannwarth, J. Chem. Phys., 2016, 145, 054103.
     DOI: 10.1063/1.4959605
   
   in the mass-spec context:
   * V. Asgeirsson, C. Bauer and S. Grimme, Chem. Sci., 2017, 8, 4879.
     DOI: 10.1039/c7sc00601b
   * J. Koopman and S. Grimme, ACS Omega 2019, 4, 12, 15120-15133.
     DOI: 10.1021/acsomega.9b02011
   
   for metadynamics refer to:
   * S. Grimme, J. Chem. Theory Comput., 2019, 155, 2847-2862
     DOI: 10.1021/acs.jctc.9b00143
   
   for SPH calculations refer to:
   * S. Spicher and S. Grimme, J. Chem. Theory Comput., 2021, 17, 1701-1714
     DOI: 10.1021/acs.jctc.0c01306
   
   with help from (in alphabetical order)
   P. Atkinson, C. Bannwarth, F. Bohle, G. Brandenburg, E. Caldeweyher
   M. Checinski, S. Dohm, S. Ehlert, S. Ehrlich, I. Gerasimov, C. Hölzer
   A. Katbashev, J. Koopman, C. Lavigne, S. Lehtola, F. März, M. Müller,
   F. Musil, H. Neugebauer, J. Pisarek, C. Plett, P. Pracht, F. Pultar,
   J. Seibert, P. Shushkov, S. Spicher, M. Stahn, M. Steiner, T. Strunk,
   J. Stückrath, T. Rose, and J. Unsleber
   
 * started run on 2025/01/14 at 22:20:44.259     

           -------------------------------------------------
          |                Calculation Setup                |
           -------------------------------------------------

          program call               : /home/jang/cal_tmp/10_orca/orca_5_0_4_linux_x86-64_shared_openmpi411/otool_xtb /home/jang/cal_tmp/10_orca/Gen_chromophore/Gen_molecular_pairs_cal/mol_4_2.xyz/input_XTB.xyz --grad -c 0 -u 0 -P 4 --namespace /home/jang/cal_tmp/10_orca/Gen_chromophore/Gen_molecular_pairs_cal/mol_4_2.xyz/input --input /home/jang/cal_tmp/10_orca/Gen_chromophore/Gen_molecular_pairs_cal/mol_4_2.xyz/input_XTB.input.tmp --acc 1.000000
          hostname                   : node02
          calculation namespace      : /home/jang/cal_tmp/10_orca/Gen_chromophore/Gen_molecular_pairs_cal/mol_4_2.xyz/input
          coordinate file            : /home/jang/cal_tmp/10_orca/Gen_chromophore/Gen_molecular_pairs_cal/mol_4_2.xyz/input_XTB.xyz
          omp threads                :                     4

   ID    Z sym.   atoms
    1    8 O      1
    2    6 C      2-4, 6-11, 13-26, 39, 40
    3    7 N      5, 41
    4   16 S      12
    5    1 H      27-38, 42-44

molecular fragmentation (1/2 indicates fragments):
11111111111111111111111111111111111111222222
# atoms in fragment 1/2:    38     6
 fragment masses (1/2) :      350.41       41.05
CMA distance (Bohr)    :  23.466
constraining FC (au)   :  0.0500

           -------------------------------------------------
          |                 G F N 2 - x T B                 |
           -------------------------------------------------

        Reference                      10.1021/acs.jctc.8b01176
      * Hamiltonian:
        H0-scaling (s, p, d)           1.850000    2.230000    2.230000
        zeta-weighting                 0.500000
      * Dispersion:
        s8                             2.700000
        a1                             0.520000
        a2                             5.000000
        s9                             5.000000
      * Repulsion:
        kExp                           1.500000    1.000000
        rExp                           1.000000
      * Coulomb:
        alpha                          2.000000
        third order                    shell-resolved
        anisotropic                    true
        a3                             3.000000
        a5                             4.000000
        cn-shift                       1.200000
        cn-exp                         4.000000
        max-rad                        5.000000

q/qsh data taken from xtbrestart
CAMM data taken from xtbrestart

          ...................................................
          :                      SETUP                      :
          :.................................................:
          :  # basis functions                 137          :
          :  # atomic orbitals                 136          :
          :  # shells                           74          :
          :  # electrons                       137          :
          :  max. iterations                   250          :
          :  Hamiltonian                  GFN2-xTB          :
          :  restarted?                       true          :
          :  GBSA solvation                  false          :
          :  PC potential                    false          :
          :  electronic temp.          300.0000000     K    :
          :  accuracy                    1.0000000          :
          :  -> integral cutoff          0.2500000E+02      :
          :  -> integral neglect         0.1000000E-07      :
          :  -> SCF convergence          0.1000000E-05 Eh   :
          :  -> wf. convergence          0.1000000E-03 e    :
          :  Broyden damping             0.4000000          :
          ...................................................

 iter      E             dE          RMSdq      gap      omega  full diag
   1    -75.6200006 -0.756200E+02  0.192E-03    1.75       0.0  T
   2    -75.6200006 -0.229470E-08  0.110E-03    1.75      13.8  T
   3    -75.6200006  0.913926E-08  0.421E-04    1.75      35.8  T
   4    -75.6200006 -0.107635E-07  0.707E-05    1.75     213.1  T

   *** convergence criteria satisfied after 4 iterations ***

         #    Occupation            Energy/Eh            Energy/eV
      -------------------------------------------------------------
         1        2.0000           -0.7241311             -19.7046
       ...           ...                  ...                  ...
        63        2.0000           -0.4138454             -11.2613
        64        2.0000           -0.4136371             -11.2556
        65        2.0000           -0.3877367             -10.5509
        66        2.0000           -0.3868620             -10.5270
        67        2.0000           -0.3817436             -10.3878
        68        2.0000           -0.3703142             -10.0768
        69        1.0000           -0.3505807              -9.5398 (HOMO)
        70                         -0.2863945              -7.7932 (LUMO)
        71                         -0.2641124              -7.1869
        72                         -0.2371985              -6.4545
        73                         -0.2361801              -6.4268
        74                         -0.2283505              -6.2137
       ...                                ...                  ...
       136                          1.1428504              31.0985
      -------------------------------------------------------------
                  HL-Gap            0.0641863 Eh            1.7466 eV
             Fermi-level           -0.3394675 Eh           -9.2374 eV

 SCC (total)                   0 d,  0 h,  0 min,  0.077 sec
 SCC setup                      ...        0 min,  0.000 sec (  0.641%)
 Dispersion                     ...        0 min,  0.001 sec (  1.656%)
 classical contributions        ...        0 min,  0.000 sec (  0.137%)
 integral evaluation            ...        0 min,  0.026 sec ( 33.285%)
 iterations                     ...        0 min,  0.036 sec ( 46.814%)
 molecular gradient             ...        0 min,  0.012 sec ( 16.274%)
 printout                       ...        0 min,  0.001 sec (  1.072%)

         :::::::::::::::::::::::::::::::::::::::::::::::::::::
         ::                     SUMMARY                     ::
         :::::::::::::::::::::::::::::::::::::::::::::::::::::
         :: total energy             -74.304269553555 Eh    ::
         :: gradient norm              0.001036821942 Eh/a0 ::
         :: HOMO-LUMO gap              1.746596866077 eV    ::
         ::.................................................::
         :: SCC energy               -75.620000581692 Eh    ::
         :: -> isotropic ES            0.045971009455 Eh    ::
         :: -> anisotropic ES          0.004529372215 Eh    ::
         :: -> anisotropic XC          0.051720275984 Eh    ::
         :: -> dispersion             -0.054559262616 Eh    ::
         :: repulsion energy           1.316417866939 Eh    ::
         :: add. restraining           0.000000000000 Eh    ::
         :: total charge               0.000000000185 e     ::
         :::::::::::::::::::::::::::::::::::::::::::::::::::::


Property printout bound to 'properties.out'

           -------------------------------------------------
          | TOTAL ENERGY              -74.304269553555 Eh   |
          | GRADIENT NORM               0.001036821942 Eh/α |
          | HOMO-LUMO GAP               1.746596866077 eV   |
           -------------------------------------------------

------------------------------------------------------------------------
 * finished run on 2025/01/14 at 22:20:44.476     
------------------------------------------------------------------------
 total:
 * wall-time:     0 d,  0 h,  0 min,  0.216 sec
 *  cpu-time:     0 d,  0 h,  0 min,  0.643 sec
 * ratio c/w:     2.980 speedup
 SCF:
 * wall-time:     0 d,  0 h,  0 min,  0.077 sec
 *  cpu-time:     0 d,  0 h,  0 min,  0.289 sec
 * ratio c/w:     3.750 speedup


-------------------------   --------------------
FINAL SINGLE POINT ENERGY       -74.304269553560
-------------------------   --------------------

                                *** OPTIMIZATION RUN DONE ***

Timings for individual modules:

Sum of individual times         ...       44.848 sec (=   0.747 min)
Geometry relaxation             ...       22.408 sec (=   0.373 min)  50.0 %
XTB module                      ...       22.441 sec (=   0.374 min)  50.0 %
                             ****ORCA TERMINATED NORMALLY****
TOTAL RUN TIME: 0 days 0 hours 2 minutes 18 seconds 156 msec
