
                                 *****************
                                 * O   R   C   A *
                                 *****************

                                            #,                                       
                                            ###                                      
                                            ####                                     
                                            #####                                    
                                            ######                                   
                                           ########,                                 
                                     ,,################,,,,,                         
                               ,,#################################,,                 
                          ,,##########################################,,             
                       ,#########################################, ''#####,          
                    ,#############################################,,   '####,        
                  ,##################################################,,,,####,       
                ,###########''''           ''''###############################       
              ,#####''   ,,,,##########,,,,          '''####'''          '####       
            ,##' ,,,,###########################,,,                        '##       
           ' ,,###''''                  '''############,,,                           
         ,,##''                                '''############,,,,        ,,,,,,###''
      ,#''                                            '''#######################'''  
     '                                                          ''''####''''         
             ,#######,   #######,   ,#######,      ##                                
            ,#'     '#,  ##    ##  ,#'     '#,    #''#        ######   ,####,        
            ##       ##  ##   ,#'  ##            #'  '#       #        #'  '#        
            ##       ##  #######   ##           ,######,      #####,   #    #        
            '#,     ,#'  ##    ##  '#,     ,#' ,#      #,         ##   #,  ,#        
             '#######'   ##     ##  '#######'  #'      '#     #####' # '####'        



                  #######################################################
                  #                        -***-                        #
                  #          Department of theory and spectroscopy      #
                  #    Directorship and core code : Frank Neese         #
                  #        Max Planck Institute fuer Kohlenforschung    #
                  #                Kaiser Wilhelm Platz 1               #
                  #                 D-45470 Muelheim/Ruhr               #
                  #                      Germany                        #
                  #                                                     #
                  #                  All rights reserved                #
                  #                        -***-                        #
                  #######################################################


                         Program Version 5.0.4 -  RELEASE  -


 With contributions from (in alphabetic order):
   Daniel Aravena         : Magnetic Suceptibility
   Michael Atanasov       : Ab Initio Ligand Field Theory (pilot matlab implementation)
   Alexander A. Auer      : GIAO ZORA, VPT2 properties, NMR spectrum
   Ute Becker             : Parallelization
   Giovanni Bistoni       : ED, misc. LED, open-shell LED, HFLD
   Martin Brehm           : Molecular dynamics
   Dmytro Bykov           : SCF Hessian
   Vijay G. Chilkuri      : MRCI spin determinant printing, contributions to CSF-ICE
   Dipayan Datta          : RHF DLPNO-CCSD density
   Achintya Kumar Dutta   : EOM-CC, STEOM-CC
   Dmitry Ganyushin       : Spin-Orbit,Spin-Spin,Magnetic field MRCI
   Miquel Garcia          : C-PCM and meta-GGA Hessian, CC/C-PCM, Gaussian charge scheme
   Yang Guo               : DLPNO-NEVPT2, F12-NEVPT2, CIM, IAO-localization
   Andreas Hansen         : Spin unrestricted coupled pair/coupled cluster methods
   Benjamin Helmich-Paris : MC-RPA, TRAH-SCF, COSX integrals
   Lee Huntington         : MR-EOM, pCC
   Robert Izsak           : Overlap fitted RIJCOSX, COSX-SCS-MP3, EOM
   Marcus Kettner         : VPT2
   Christian Kollmar      : KDIIS, OOCD, Brueckner-CCSD(T), CCSD density, CASPT2, CASPT2-K
   Simone Kossmann        : Meta GGA functionals, TD-DFT gradient, OOMP2, MP2 Hessian
   Martin Krupicka        : Initial AUTO-CI
   Lucas Lang             : DCDCAS
   Marvin Lechner         : AUTO-CI (C++ implementation), FIC-MRCC
   Dagmar Lenk            : GEPOL surface, SMD
   Dimitrios Liakos       : Extrapolation schemes; Compound Job, initial MDCI parallelization
   Dimitrios Manganas     : Further ROCIS development; embedding schemes
   Dimitrios Pantazis     : SARC Basis sets
   Anastasios Papadopoulos: AUTO-CI, single reference methods and gradients
   Taras Petrenko         : DFT Hessian,TD-DFT gradient, ASA, ECA, R-Raman, ABS, FL, XAS/XES, NRVS
   Peter Pinski           : DLPNO-MP2, DLPNO-MP2 Gradient
   Christoph Reimann      : Effective Core Potentials
   Marius Retegan         : Local ZFS, SOC
   Christoph Riplinger    : Optimizer, TS searches, QM/MM, DLPNO-CCSD(T), (RO)-DLPNO pert. Triples
   Tobias Risthaus        : Range-separated hybrids, TD-DFT gradient, RPA, STAB
   Michael Roemelt        : Original ROCIS implementation
   Masaaki Saitow         : Open-shell DLPNO-CCSD energy and density
   Barbara Sandhoefer     : DKH picture change effects
   Avijit Sen             : IP-ROCIS
   Kantharuban Sivalingam : CASSCF convergence, NEVPT2, FIC-MRCI
   Bernardo de Souza      : ESD, SOC TD-DFT
   Georgi Stoychev        : AutoAux, RI-MP2 NMR, DLPNO-MP2 response
   Willem Van den Heuvel  : Paramagnetic NMR
   Boris Wezisla          : Elementary symmetry handling
   Frank Wennmohs         : Technical directorship


 We gratefully acknowledge several colleagues who have allowed us to
 interface, adapt or use parts of their codes:
   Stefan Grimme, W. Hujo, H. Kruse, P. Pracht,  : VdW corrections, initial TS optimization,
                  C. Bannwarth, S. Ehlert          DFT functionals, gCP, sTDA/sTD-DF
   Ed Valeev, F. Pavosevic, A. Kumar             : LibInt (2-el integral package), F12 methods
   Garnet Chan, S. Sharma, J. Yang, R. Olivares  : DMRG
   Ulf Ekstrom                                   : XCFun DFT Library
   Mihaly Kallay                                 : mrcc  (arbitrary order and MRCC methods)
   Jiri Pittner, Ondrej Demel                    : Mk-CCSD
   Frank Weinhold                                : gennbo (NPA and NBO analysis)
   Christopher J. Cramer and Donald G. Truhlar   : smd solvation model
   Lars Goerigk                                  : TD-DFT with DH, B97 family of functionals
   V. Asgeirsson, H. Jonsson                     : NEB implementation
   FAccTs GmbH                                   : IRC, NEB, NEB-TS, DLPNO-Multilevel, CI-OPT
                                                   MM, QMMM, 2- and 3-layer-ONIOM, Crystal-QMMM,
                                                   LR-CPCM, SF, NACMEs, symmetry and pop. for TD-DFT,
                                                   nearIR, NL-DFT gradient (VV10), updates on ESD,
                                                   ML-optimized integration grids
   S Lehtola, MJT Oliveira, MAL Marques          : LibXC Library
   Liviu Ungur et al                             : ANISO software


 Your calculation uses the libint2 library for the computation of 2-el integrals
 For citations please refer to: http://libint.valeyev.net

 Your ORCA version has been built with support for libXC version: 5.1.0
 For citations please refer to: https://tddft.org/programs/libxc/

 This ORCA versions uses:
   CBLAS   interface :  Fast vector & matrix operations
   LAPACKE interface :  Fast linear algebra routines
   SCALAPACK package :  Parallel linear algebra routines
   Shared memory     :  Shared parallel matrices
   BLAS/LAPACK       :  OpenBLAS 0.3.15  USE64BITINT DYNAMIC_ARCH NO_AFFINITY SkylakeX SINGLE_THREADED
        Core in use  :  SkylakeX
   Copyright (c) 2011-2014, The OpenBLAS Project




***************************************
The coordinates will be read from file: mol.xyz
***************************************


Your calculation utilizes the atom-pairwise dispersion correction
with the Becke-Johnson damping scheme (D3BJ)
Cite in your paper:
S.Grimme, S.Ehrlich, L.Goerigk, J Comput Chem, (2011), 32, 1456–1465 
S.Grimme, J.Antony, S.Ehrlich and H.Krieg, J.Chem.Phys., 132, (2010), 154104 
   

Your calculation utilizes the semiempirical GFN2-xTB method
Please cite in your paper:
C. Bannwarth, Ehlert S., S. Grimme,  J. Chem. Theory Comput., 15, (2019), 1652.
   

================================================================================

----- Orbital basis set information -----
Your calculation utilizes the basis: def2-SVP
   F. Weigend and R. Ahlrichs, Phys. Chem. Chem. Phys. 7, 3297 (2005).

----- AuxJ basis set information -----
Your calculation utilizes the auxiliary basis: def2/J
   F. Weigend, Phys. Chem. Chem. Phys. 8, 1057 (2006).

================================================================================
                                        WARNINGS
                       Please study these warnings very carefully!
================================================================================


WARNING: Geometry Optimization
  ===> : Switching off AutoStart
         For restart on a previous wavefunction, please use MOREAD

WARNING: Found dipole moment calculation with XTB calculation
  ===> : Switching off dipole moment calculation


WARNING: TRAH-SCF for XTB is not implemented!
  ===> : Turning TRAH off!

================================================================================
                                       INPUT FILE
================================================================================
NAME = /home/jang/cal_tmp/10_orca/Gen_chromophore/Gen_molecular_pairs_cal/mol_1_1.xyz/input.inp
|  1> ! B3LYP D3BJ def2-SVP TightSCF XTB Opt PAL8
|  2> 
|  3> %geom
|  4>   MaxIter 3000
|  5> end
|  6> 
|  7> * xyzfile 0 1 mol.xyz
|  8> 
|  9> %pal nprocs 4 # any number (positive integer)
| 10> end
| 11> 
| 12>                          ****END OF INPUT****
================================================================================

                       *****************************
                       * Geometry Optimization Run *
                       *****************************

Geometry optimization settings:
Update method            Update   .... BFGS
Choice of coordinates    CoordSys .... Z-matrix Internals
Initial Hessian          InHess   .... Almoef's Model

Convergence Tolerances:
Energy Change            TolE     ....  5.0000e-06 Eh
Max. Gradient            TolMAXG  ....  3.0000e-04 Eh/bohr
RMS Gradient             TolRMSG  ....  1.0000e-04 Eh/bohr
Max. Displacement        TolMAXD  ....  4.0000e-03 bohr
RMS Displacement         TolRMSD  ....  2.0000e-03 bohr
Strict Convergence                ....  False
------------------------------------------------------------------------------
                        ORCA OPTIMIZATION COORDINATE SETUP
------------------------------------------------------------------------------

The optimization will be done in new redundant internal coordinates
Making redundant internal coordinates   ...  (new redundants) done
Evaluating the initial hessian          ...  (Almloef) done
Evaluating the coordinates              ...  done
Calculating the B-matrix                .... done
Calculating the G-matrix                .... done
Diagonalizing the G-matrix              .... done
Small eigenvalue found = 1.848e-02
The first mode is                       ....   60
The number of degrees of freedom        ....   60

    -----------------------------------------------------------------
                    Redundant Internal Coordinates


    -----------------------------------------------------------------
         Definition                    Initial Value    Approx d2E/dq
    -----------------------------------------------------------------
      1. B(C   1,N   0)                  1.1607         1.299475   
      2. B(C   2,C   1)                  1.4207         0.558181   
      3. B(C   3,C   2)                  1.3420         0.745267   
      4. B(C   4,C   3)                  1.4533         0.495072   
      5. B(C   5,C   4)                  1.3961         0.610997   
      6. B(C   6,C   5)                  1.3983         0.606071   
      7. B(C   7,C   6)                  1.3931         0.617709   
      8. B(O   8,C   7)                  1.3628         0.618409   
      9. B(C   9,C   7)                  1.3892         0.626601   
     10. B(C  10,C   9)                  1.3932         0.617585   
     11. B(C  10,C   4)                  1.3926         0.618825   
     12. B(O  11,C  10)                  1.4074         0.524880   
     13. B(C  12,O  11)                  1.3929         0.553617   
     14. B(C  12,C   2)                  1.4791         0.450410   
     15. B(O  13,C  12)                  1.2257         1.023144   
     16. B(H  14,C   3)                  1.0869         0.364272   
     17. B(H  15,C   5)                  1.0874         0.363554   
     18. B(H  16,C   6)                  1.0873         0.363630   
     19. B(H  17,O   8)                  0.9719         0.497702   
     20. B(H  18,C   9)                  1.0845         0.367436   
     21. B(O  19,H  14)                  5.0750         0.000000   
     22. B(O  19,C   1)                  4.8987         0.000001   
     23. B(O  19,N   0)                  4.1814         0.000018   
     24. B(H  20,H  14)                  4.7828         0.000000   
     25. B(H  20,C   1)                  4.9970         0.000000   
     26. B(H  20,N   0)                  4.4594         0.000001   
     27. B(H  20,O  19)                  0.9690         0.503046   
     28. B(H  21,N   0)                  5.0742         0.000000   
     29. B(H  21,O  19)                  0.9690         0.503046   
     30. A(C   1,N   0,O  19)          122.1588         0.126231   
     31. A(C   2,C   1,O  19)          130.5506         0.106656   
     32. A(N   0,C   1,O  19)           46.2703         0.110202   
     33. A(C   3,C   2,C  12)          121.5110         0.423641   
     34. A(C   1,C   2,C  12)          118.1718         0.402448   
     35. A(C   1,C   2,C   3)          120.3172         0.440291   
     36. A(C   4,C   3,H  14)          118.0943         0.340459   
     37. A(C   2,C   3,C   4)          120.3883         0.430879   
     38. A(C   2,C   3,H  14)          121.5174         0.364851   
     39. A(C   3,C   4,C   5)          122.2137         0.415848   
     40. A(C   5,C   4,C  10)          118.9195         0.432778   
     41. A(C   3,C   4,C  10)          118.8668         0.416791   
     42. A(C   6,C   5,H  15)          119.0386         0.352123   
     43. A(C   4,C   5,H  15)          121.1324         0.352606   
     44. A(C   4,C   5,C   6)          119.8289         0.431161   
     45. A(C   5,C   6,H  16)          120.1646         0.352136   
     46. A(C   7,C   6,H  16)          119.7862         0.353271   
     47. A(C   5,C   6,C   7)          120.0492         0.432008   
     48. A(C   6,C   7,C   9)          120.8908         0.434604   
     49. A(C   6,C   7,O   8)          117.6041         0.430741   
     50. A(O   8,C   7,C   9)          121.5052         0.431848   
     51. A(C   7,O   8,H  17)          109.0873         0.367185   
     52. A(C   7,C   9,H  18)          121.7532         0.354753   
     53. A(C  10,C   9,H  18)          119.9490         0.353882   
     54. A(C   7,C   9,C  10)          118.2978         0.434589   
     55. A(C   9,C  10,O  11)          117.3971         0.418275   
     56. A(C   4,C  10,O  11)          120.5891         0.418424   
     57. A(C   4,C  10,C   9)          122.0138         0.433613   
     58. A(C  10,O  11,C  12)          121.8053         0.407583   
     59. A(O  11,C  12,O  13)          120.8529         0.459537   
     60. A(C   2,C  12,O  13)          122.3075         0.445566   
     61. A(C   2,C  12,O  11)          116.8396         0.399292   
     62. A(H  20,O  19,H  21)          103.9780         0.318375   
     63. A(N   0,O  19,C   1)           11.5709         0.090664   
     64. A(C   1,O  19,H  21)          165.7501         0.103741   
     65. A(C   1,O  19,H  20)           90.2051         0.103741   
     66. A(N   0,O  19,H  21)          154.6779         0.114887   
     67. A(N   0,O  19,H  20)          100.4056         0.114887   
     68. D(C   3,C   2,N   0,O  19)    -13.7926         0.001504   
     69. D(C  12,C   2,N   0,O  19)    166.2073         0.001504   
     70. D(C  12,C   2,C   1,O  19)    166.6456         0.023159   
     71. D(C   3,C   2,C   1,O  19)    -13.3543         0.023159   
     72. D(H  14,C   3,C   2,C   1)      0.0000         0.039562   
     73. D(C   4,C   3,C   2,C  12)     -0.0005         0.039562   
     74. D(H  14,C   3,C   2,C  12)   -179.9999         0.039562   
     75. D(C   4,C   3,C   2,C   1)    179.9995         0.039562   
     76. D(C  10,C   4,C   3,H  14)    179.9997         0.016691   
     77. D(C  10,C   4,C   3,C   2)      0.0002         0.016691   
     78. D(C   5,C   4,C   3,H  14)     -0.0000         0.016691   
     79. D(C   5,C   4,C   3,C   2)   -179.9995         0.016691   
     80. D(C   6,C   5,C   4,C  10)     -0.0002         0.025788   
     81. D(H  15,C   5,C   4,C   3)     -0.0004         0.025788   
     82. D(C   6,C   5,C   4,C   3)    179.9995         0.025788   
     83. D(H  15,C   5,C   4,C  10)    179.9999         0.025788   
     84. D(H  16,C   6,C   5,H  15)      0.0002         0.025350   
     85. D(C   7,C   6,C   5,H  15)    180.0000         0.025350   
     86. D(C   7,C   6,C   5,C   4)      0.0001         0.025350   
     87. D(H  16,C   6,C   5,C   4)   -179.9997         0.025350   
     88. D(C   9,C   7,C   6,H  16)    179.9999         0.026391   
     89. D(O   8,C   7,C   6,H  16)      0.0000         0.026391   
     90. D(O   8,C   7,C   6,C   5)   -179.9998         0.026391   
     91. D(C   9,C   7,C   6,C   5)      0.0001         0.026391   
     92. D(H  17,O   8,C   7,C   6)   -179.9997         0.028047   
     93. D(H  17,O   8,C   7,C   9)      0.0004         0.028047   
     94. D(H  18,C   9,C   7,O   8)     -0.0001         0.027204   
     95. D(H  18,C   9,C   7,C   6)   -180.0000         0.027204   
     96. D(C  10,C   9,C   7,O   8)    179.9997         0.027204   
     97. D(C  10,C   9,C   7,C   6)     -0.0001         0.027204   
     98. D(C   9,C  10,C   4,C   3)   -179.9995         0.026493   
     99. D(O  11,C  10,C   9,H  18)     -0.0001         0.026380   
    100. D(O  11,C  10,C   9,C   7)   -180.0000         0.026380   
    101. D(C   4,C  10,C   9,H  18)    179.9999         0.026380   
    102. D(C   4,C  10,C   9,C   7)      0.0000         0.026380   
    103. D(O  11,C  10,C   4,C   5)   -179.9999         0.026493   
    104. D(O  11,C  10,C   4,C   3)      0.0004         0.026493   
    105. D(C   9,C  10,C   4,C   5)      0.0001         0.026493   
    106. D(C  12,O  11,C  10,C   9)    179.9992         0.019850   
    107. D(C  12,O  11,C  10,C   4)     -0.0008         0.019850   
    108. D(O  13,C  12,O  11,C  10)   -179.9994         0.022181   
    109. D(C   2,C  12,O  11,C  10)      0.0005         0.022181   
    110. D(O  13,C  12,C   2,C   3)   -179.9999         0.013828   
    111. D(O  13,C  12,C   2,C   1)      0.0001         0.013828   
    112. D(O  11,C  12,C   2,C   3)      0.0001         0.013828   
    113. D(O  11,C  12,C   2,C   1)   -179.9998         0.013828   
    114. D(N   0,O  19,C   1,C   2)    178.9547         0.001500   
    115. D(H  21,O  19,C   1,C   2)    156.4560         0.001500   
    116. D(H  21,O  19,C   1,N   0)    -22.4987         0.001500   
    117. D(H  20,O  19,C   1,C   2)    -29.0415         0.001500   
    118. D(H  20,O  19,C   1,N   0)    152.0039         0.001500   
    119. D(H  21,O  19,N   0,C   1)    167.2775         0.001500   
    120. D(H  20,O  19,N   0,C   1)    -28.5065         0.001500   
    -----------------------------------------------------------------

Number of atoms                         .... 22
Number of degrees of freedom            .... 120

         *************************************************************
         *                GEOMETRY OPTIMIZATION CYCLE   1            *
         *************************************************************
---------------------------------
CARTESIAN COORDINATES (ANGSTROEM)
---------------------------------
  N     4.575418   -0.183461    2.047817
  C     3.496207    0.022814    1.673797
  C     2.179739    0.206996    1.172450
  C     1.647286   -0.685273    0.323141
  C     0.300700   -0.498387   -0.190671
  C    -0.290350   -1.402176   -1.075467
  C    -1.589649   -1.173299   -1.538751
  C    -2.291839   -0.046071   -1.118004
  O    -3.554411    0.127949   -1.600546
  C    -1.719190    0.863633   -0.237986
  C    -0.423937    0.620044    0.213542
  O     0.137700    1.553757    1.104394
  C     1.425429    1.400623    1.612867
  O     1.897368    2.224699    2.387862
  H     2.201475   -1.562411   -0.000554
  H     0.242670   -2.287259   -1.414526
  H    -2.055261   -1.873645   -2.227982
  H    -3.926347    0.945853   -1.230006
  H    -2.253009    1.745616    0.098623
  O     6.429792   -3.898578    1.554752
  H     5.655968   -4.481807    1.554752
  H     7.182668   -4.508610    1.554752

----------------------------
CARTESIAN COORDINATES (A.U.)
----------------------------
  NO LB    ZA    FRAG    MASS        X           Y           Z
   0 N   7.0000    0    14.007    8.646288   -0.346692    3.869813
   1 C   6.0000    0    12.011    6.606873    0.043112    3.163017
   2 C   6.0000    0    12.011    4.119110    0.391167    2.215609
   3 C   6.0000    0    12.011    3.112920   -1.294979    0.610648
   4 C   6.0000    0    12.011    0.568240   -0.941816   -0.360316
   5 C   6.0000    0    12.011   -0.548682   -2.649729   -2.032338
   6 C   6.0000    0    12.011   -3.004001   -2.217214   -2.907818
   7 C   6.0000    0    12.011   -4.330948   -0.087061   -2.112721
   8 O   8.0000    0    15.999   -6.716862    0.241788   -3.024593
   9 C   6.0000    0    12.011   -3.248799    1.632029   -0.449728
  10 C   6.0000    0    12.011   -0.801124    1.171713    0.403536
  11 O   8.0000    0    15.999    0.260215    2.936175    2.087002
  12 C   6.0000    0    12.011    2.693670    2.646793    3.047876
  13 O   8.0000    0    15.999    3.585507    4.204072    4.512405
  14 H   1.0000    0     1.008    4.160185   -2.952530   -0.001047
  15 H   1.0000    0     1.008    0.458580   -4.322292   -2.673066
  16 H   1.0000    0     1.008   -3.883881   -3.540675   -4.210276
  17 H   1.0000    0     1.008   -7.419721    1.787403   -2.324374
  18 H   1.0000    0     1.008   -4.257570    3.298736    0.186370
  19 O   8.0000    0    15.999   12.150547   -7.367244    2.938055
  20 H   1.0000    0     1.008   10.688230   -8.469388    2.938055
  21 H   1.0000    0     1.008   13.573276   -8.520037    2.938055

      -----------------------------------------------------------      
     |                   =====================                   |     
     |                           x T B                           |     
     |                   =====================                   |     
     |                         S. Grimme                         |     
     |          Mulliken Center for Theoretical Chemistry        |     
     |                    University of Bonn                     |     
      -----------------------------------------------------------      

   * xtb version 6.6.1 (8d0f1dd) compiled by 'stahn@M-Bot' on 2023-08-01

   xtb is free software: you can redistribute it and/or modify it under
   the terms of the GNU Lesser General Public License as published by
   the Free Software Foundation, either version 3 of the License, or
   (at your option) any later version.
   
   xtb is distributed in the hope that it will be useful,
   but WITHOUT ANY WARRANTY; without even the implied warranty of
   MERCHANTABILITY or FITNESS FOR A PARTICULAR PURPOSE.  See the
   GNU Lesser General Public License for more details.
   
   Cite this work as:
   * C. Bannwarth, E. Caldeweyher, S. Ehlert, A. Hansen, P. Pracht,
     J. Seibert, S. Spicher, S. Grimme, WIREs Comput. Mol. Sci., 2020, 11,
     e01493. DOI: 10.1002/wcms.1493
   
   for GFN2-xTB:
   * C. Bannwarth, S. Ehlert and S. Grimme., J. Chem. Theory Comput., 2019,
     15, 1652-1671. DOI: 10.1021/acs.jctc.8b01176
   for GFN1-xTB:
   * S. Grimme, C. Bannwarth, P. Shushkov, J. Chem. Theory Comput., 2017,
     13, 1989-2009. DOI: 10.1021/acs.jctc.7b00118
   for GFN0-xTB:
   * P. Pracht, E. Caldeweyher, S. Ehlert, S. Grimme, ChemRxiv, 2019, preprint.
     DOI: 10.26434/chemrxiv.8326202.v1
   for GFN-FF:
   * S. Spicher and S. Grimme, Angew. Chem. Int. Ed., 2020, 59, 15665-15673.
     DOI: 10.1002/anie.202004239
   
   for ALPB and GBSA implicit solvation:
   * S. Ehlert, M. Stahn, S. Spicher, S. Grimme, J. Chem. Theory Comput.,
     2021, 17, 4250-4261. DOI: 10.1021/acs.jctc.1c00471
   
   for DFT-D4:
   * E. Caldeweyher, C. Bannwarth and S. Grimme, J. Chem. Phys., 2017,
     147, 034112. DOI: 10.1063/1.4993215
   * E. Caldeweyher, S. Ehlert, A. Hansen, H. Neugebauer, S. Spicher,
     C. Bannwarth and S. Grimme, J. Chem. Phys., 2019, 150, 154122.
     DOI: 10.1063/1.5090222
   * E. Caldeweyher, J.-M. Mewes, S. Ehlert and S. Grimme, Phys. Chem. Chem. Phys.
     2020, 22, 8499-8512. DOI: 10.1039/D0CP00502A
   
   for sTDA-xTB:
   * S. Grimme and C. Bannwarth, J. Chem. Phys., 2016, 145, 054103.
     DOI: 10.1063/1.4959605
   
   in the mass-spec context:
   * V. Asgeirsson, C. Bauer and S. Grimme, Chem. Sci., 2017, 8, 4879.
     DOI: 10.1039/c7sc00601b
   * J. Koopman and S. Grimme, ACS Omega 2019, 4, 12, 15120-15133.
     DOI: 10.1021/acsomega.9b02011
   
   for metadynamics refer to:
   * S. Grimme, J. Chem. Theory Comput., 2019, 155, 2847-2862
     DOI: 10.1021/acs.jctc.9b00143
   
   for SPH calculations refer to:
   * S. Spicher and S. Grimme, J. Chem. Theory Comput., 2021, 17, 1701-1714
     DOI: 10.1021/acs.jctc.0c01306
   
   with help from (in alphabetical order)
   P. Atkinson, C. Bannwarth, F. Bohle, G. Brandenburg, E. Caldeweyher
   M. Checinski, S. Dohm, S. Ehlert, S. Ehrlich, I. Gerasimov, C. Hölzer
   A. Katbashev, J. Koopman, C. Lavigne, S. Lehtola, F. März, M. Müller,
   F. Musil, H. Neugebauer, J. Pisarek, C. Plett, P. Pracht, F. Pultar,
   J. Seibert, P. Shushkov, S. Spicher, M. Stahn, M. Steiner, T. Strunk,
   J. Stückrath, T. Rose, and J. Unsleber
   
 * started run on 2025/01/14 at 20:45:15.666     

           -------------------------------------------------
          |                Calculation Setup                |
           -------------------------------------------------

          program call               : /home/jang/cal_tmp/10_orca/orca_5_0_4_linux_x86-64_shared_openmpi411/otool_xtb /home/jang/cal_tmp/10_orca/Gen_chromophore/Gen_molecular_pairs_cal/mol_1_1.xyz/input_XTB.xyz --grad -c 0 -u 0 -P 4 --namespace /home/jang/cal_tmp/10_orca/Gen_chromophore/Gen_molecular_pairs_cal/mol_1_1.xyz/input --input /home/jang/cal_tmp/10_orca/Gen_chromophore/Gen_molecular_pairs_cal/mol_1_1.xyz/input_XTB.input.tmp --acc 1.000000
          hostname                   : node02
          calculation namespace      : /home/jang/cal_tmp/10_orca/Gen_chromophore/Gen_molecular_pairs_cal/mol_1_1.xyz/input
          coordinate file            : /home/jang/cal_tmp/10_orca/Gen_chromophore/Gen_molecular_pairs_cal/mol_1_1.xyz/input_XTB.xyz
          omp threads                :                     4

   ID    Z sym.   atoms
    1    7 N      1
    2    6 C      2-8, 10, 11, 13
    3    8 O      9, 12, 14, 20
    4    1 H      15-19, 21, 22

molecular fragmentation (1/2 indicates fragments):
1111111111111111111222
# atoms in fragment 1/2:    19     3
 fragment masses (1/2) :      187.15       18.02
CMA distance (Bohr)    :  14.165
constraining FC (au)   :  0.0500

           -------------------------------------------------
          |                 G F N 2 - x T B                 |
           -------------------------------------------------

        Reference                      10.1021/acs.jctc.8b01176
      * Hamiltonian:
        H0-scaling (s, p, d)           1.850000    2.230000    2.230000
        zeta-weighting                 0.500000
      * Dispersion:
        s8                             2.700000
        a1                             0.520000
        a2                             5.000000
        s9                             5.000000
      * Repulsion:
        kExp                           1.500000    1.000000
        rExp                           1.000000
      * Coulomb:
        alpha                          2.000000
        third order                    shell-resolved
        anisotropic                    true
        a3                             3.000000
        a5                             4.000000
        cn-shift                       1.200000
        cn-exp                         4.000000
        max-rad                        5.000000


          ...................................................
          :                      SETUP                      :
          :.................................................:
          :  # basis functions                  67          :
          :  # atomic orbitals                  67          :
          :  # shells                           37          :
          :  # electrons                        76          :
          :  max. iterations                   250          :
          :  Hamiltonian                  GFN2-xTB          :
          :  restarted?                      false          :
          :  GBSA solvation                  false          :
          :  PC potential                    false          :
          :  electronic temp.          300.0000000     K    :
          :  accuracy                    1.0000000          :
          :  -> integral cutoff          0.2500000E+02      :
          :  -> integral neglect         0.1000000E-07      :
          :  -> SCF convergence          0.1000000E-05 Eh   :
          :  -> wf. convergence          0.1000000E-03 e    :
          :  Broyden damping             0.4000000          :
          ...................................................

 iter      E             dE          RMSdq      gap      omega  full diag
   1    -44.6053273 -0.446053E+02  0.557E+00    2.84       0.0  T
   2    -44.6411763 -0.358490E-01  0.345E+00    2.75       1.0  T
   3    -44.6228652  0.183112E-01  0.230E+00    2.75       1.0  T
   4    -44.6791749 -0.563097E-01  0.695E-01    2.74       1.0  T
   5    -44.6865198 -0.734489E-02  0.178E-01    2.71       1.0  T
   6    -44.6866682 -0.148360E-03  0.778E-02    2.73       1.0  T
   7    -44.6867230 -0.548278E-04  0.340E-02    2.72       1.0  T
   8    -44.6867317 -0.871364E-05  0.156E-02    2.73       1.4  T
   9    -44.6867338 -0.209233E-05  0.572E-03    2.72       3.7  T
  10    -44.6867341 -0.325031E-06  0.233E-03    2.72       9.1  T
  11    -44.6867341 -0.663722E-08  0.113E-03    2.72      18.9  T
  12    -44.6867342 -0.148335E-07  0.463E-04    2.72      46.1  T
  13    -44.6867342 -0.931614E-09  0.151E-04    2.72     141.3  T

   *** convergence criteria satisfied after 13 iterations ***

         #    Occupation            Energy/Eh            Energy/eV
      -------------------------------------------------------------
         1        2.0000           -0.7599705             -20.6799
       ...           ...                  ...                  ...
        32        2.0000           -0.4701716             -12.7940
        33        2.0000           -0.4590274             -12.4908
        34        2.0000           -0.4411034             -12.0030
        35        2.0000           -0.4377469             -11.9117
        36        2.0000           -0.4342601             -11.8168
        37        2.0000           -0.4232465             -11.5171
        38        2.0000           -0.4180248             -11.3750 (HOMO)
        39                         -0.3178891              -8.6502 (LUMO)
        40                         -0.2728891              -7.4257
        41                         -0.2507144              -6.8223
        42                         -0.2271946              -6.1823
        43                         -0.2202971              -5.9946
       ...                                ...                  ...
        67                          1.0886924              29.6248
      -------------------------------------------------------------
                  HL-Gap            0.1001357 Eh            2.7248 eV
             Fermi-level           -0.3679569 Eh          -10.0126 eV

 SCC (total)                   0 d,  0 h,  0 min,  0.054 sec
 SCC setup                      ...        0 min,  0.000 sec (  0.720%)
 Dispersion                     ...        0 min,  0.001 sec (  1.963%)
 classical contributions        ...        0 min,  0.000 sec (  0.139%)
 integral evaluation            ...        0 min,  0.003 sec (  5.009%)
 iterations                     ...        0 min,  0.045 sec ( 81.981%)
 molecular gradient             ...        0 min,  0.005 sec (  9.358%)
 printout                       ...        0 min,  0.000 sec (  0.636%)

         :::::::::::::::::::::::::::::::::::::::::::::::::::::
         ::                     SUMMARY                     ::
         :::::::::::::::::::::::::::::::::::::::::::::::::::::
         :: total energy             -44.110230376830 Eh    ::
         :: gradient norm              0.100028590231 Eh/a0 ::
         :: HOMO-LUMO gap              2.724831426994 eV    ::
         ::.................................................::
         :: SCC energy               -44.686734157169 Eh    ::
         :: -> isotropic ES            0.100941161922 Eh    ::
         :: -> anisotropic ES          0.004155880941 Eh    ::
         :: -> anisotropic XC          0.021963490231 Eh    ::
         :: -> dispersion             -0.019568895914 Eh    ::
         :: repulsion energy           0.576572041753 Eh    ::
         :: add. restraining           0.000000000000 Eh    ::
         :: total charge               0.000000000000 e     ::
         :::::::::::::::::::::::::::::::::::::::::::::::::::::


Property printout bound to 'properties.out'

           -------------------------------------------------
          | TOTAL ENERGY              -44.110230376830 Eh   |
          | GRADIENT NORM               0.100028590231 Eh/α |
          | HOMO-LUMO GAP               2.724831426994 eV   |
           -------------------------------------------------

------------------------------------------------------------------------
 * finished run on 2025/01/14 at 20:45:16.131     
------------------------------------------------------------------------
 total:
 * wall-time:     0 d,  0 h,  0 min,  0.464 sec
 *  cpu-time:     0 d,  0 h,  0 min,  1.010 sec
 * ratio c/w:     2.174 speedup
 SCF:
 * wall-time:     0 d,  0 h,  0 min,  0.055 sec
 *  cpu-time:     0 d,  0 h,  0 min,  0.206 sec
 * ratio c/w:     3.764 speedup


-------------------------   --------------------
FINAL SINGLE POINT ENERGY       -44.110230376830
-------------------------   --------------------

------------------------------------------------------------------------------
                         ORCA GEOMETRY RELAXATION STEP
------------------------------------------------------------------------------

Reading the OPT-File                    .... done
Getting information on internals        .... done
Copying old internal coords+grads       .... done
Making the new internal coordinates     .... (new redundants).... done
Validating the new internal coordinates .... (new redundants).... done
Calculating the B-matrix                .... done
Calculating the G,G- and P matrices     .... done
Transforming gradient to internals      .... done
Projecting the internal gradient        .... done
Number of atoms                         ....  22
Number of internal coordinates          .... 120
Current Energy                          ....   -44.110230377 Eh
Current gradient norm                   ....     0.100028590 Eh/bohr
Maximum allowed component of the step   ....  0.300
Current trust radius                    ....  0.300
Evaluating the initial hessian          ....  (Almloef) done
Projecting the Hessian                  .... done
Forming the augmented Hessian           .... done
Diagonalizing the augmented Hessian     .... done
Last element of RFO vector              ....  0.991066041
Lowest eigenvalues of augmented Hessian:
 -0.009400030  0.000025854  0.001254905  0.001591436  0.001739166
Length of the computed step             ....  0.134574326
The final length of the internal step   ....  0.134574326
Converting the step to cartesian space:
 Initial RMS(Int)=    0.0122848990
Transforming coordinates:
 Iter   0:  RMS(Cart)=    0.0331221043 RMS(Int)=    2.3647980219
 Iter   1:  RMS(Cart)=    0.0003074674 RMS(Int)=    0.0001719315
 Iter   2:  RMS(Cart)=    0.0000049593 RMS(Int)=    0.0000034621
 Iter   3:  RMS(Cart)=    0.0000001700 RMS(Int)=    0.0000000946
 Iter   4:  RMS(Cart)=    0.0000000047 RMS(Int)=    0.0000000036
done
Storing new coordinates                 .... done

                                .--------------------.
          ----------------------|Geometry convergence|-------------------------
          Item                value                   Tolerance       Converged
          ---------------------------------------------------------------------
          RMS gradient        0.0072926325            0.0001000000      NO
          MAX gradient        0.0406530452            0.0003000000      NO
          RMS step            0.0122848990            0.0020000000      NO
          MAX step            0.0586927651            0.0040000000      NO
          ........................................................
          Max(Bonds)      0.0311      Max(Angles)    1.49
          Max(Dihed)        1.23      Max(Improp)    0.00
          ---------------------------------------------------------------------

The optimization has not yet converged - more geometry cycles are needed


    ---------------------------------------------------------------------------
                         Redundant Internal Coordinates
                            (Angstroem and degrees)

        Definition                    Value    dE/dq     Step     New-Value
    ----------------------------------------------------------------------------
     1. B(C   1,N   0)                1.1607  0.032693 -0.0154    1.1453   
     2. B(C   2,C   1)                1.4207  0.005965 -0.0054    1.4153   
     3. B(C   3,C   2)                1.3420 -0.011716  0.0087    1.3507   
     4. B(C   4,C   3)                1.4533  0.018312 -0.0186    1.4347   
     5. B(C   5,C   4)                1.3961 -0.001153  0.0010    1.3971   
     6. B(C   6,C   5)                1.3983  0.020213 -0.0175    1.3808   
     7. B(C   7,C   6)                1.3931 -0.003236  0.0026    1.3957   
     8. B(O   8,C   7)                1.3628  0.009911 -0.0084    1.3544   
     9. B(C   9,C   7)                1.3892  0.000213 -0.0002    1.3890   
    10. B(C  10,C   9)                1.3932  0.009476 -0.0079    1.3853   
    11. B(C  10,C   4)                1.3926 -0.005016  0.0042    1.3968   
    12. B(O  11,C  10)                1.4074  0.030664 -0.0311    1.3764   
    13. B(C  12,O  11)                1.3929  0.024859 -0.0239    1.3690   
    14. B(C  12,C   2)                1.4791  0.005346 -0.0060    1.4731   
    15. B(O  13,C  12)                1.2257  0.040653 -0.0208    1.2049   
    16. B(H  14,C   3)                1.0869  0.003522 -0.0053    1.0816   
    17. B(H  15,C   5)                1.0874  0.006319 -0.0090    1.0784   
    18. B(H  16,C   6)                1.0873  0.006737 -0.0096    1.0778   
    19. B(H  17,O   8)                0.9719  0.005078 -0.0053    0.9666   
    20. B(H  18,C   9)                1.0845  0.003818 -0.0054    1.0791   
    21. B(O  19,H  14)                5.0750  0.000378  0.0035    5.0785   
    22. B(O  19,C   1)                4.8987  0.004561  0.0001    4.8988   
    23. B(O  19,N   0)                4.1814 -0.007049  0.0153    4.1967   
    24. B(H  20,H  14)                4.7828 -0.000805  0.0055    4.7884   
    25. B(H  20,C   1)                4.9970  0.003506 -0.0070    4.9901   
    26. B(H  20,N   0)                4.4594 -0.000688  0.0035    4.4630   
    27. B(H  20,O  19)                0.9690  0.006849 -0.0077    0.9613   
    28. B(H  21,N   0)                5.0742 -0.000125  0.0051    5.0794   
    29. B(H  21,O  19)                0.9690  0.007276 -0.0075    0.9615   
    30. A(C   1,N   0,O  19)          122.16 -0.007024   -0.29    121.87   
    31. A(C   2,C   1,O  19)          130.55  0.001854   -0.28    130.27   
    32. A(N   0,C   1,O  19)           46.27  0.003169    0.41     46.68   
    33. A(C   3,C   2,C  12)          121.51  0.001904   -0.14    121.38   
    34. A(C   1,C   2,C  12)          118.17  0.000633   -0.20    117.98   
    35. A(C   1,C   2,C   3)          120.32 -0.002537    0.33    120.65   
    36. A(C   4,C   3,H  14)          118.09 -0.003102    0.33    118.43   
    37. A(C   2,C   3,C   4)          120.39  0.005252   -0.53    119.86   
    38. A(C   2,C   3,H  14)          121.52 -0.002150    0.20    121.72   
    39. A(C   3,C   4,C   5)          122.21 -0.004528    0.56    122.78   
    40. A(C   5,C   4,C  10)          118.92  0.000185   -0.05    118.87   
    41. A(C   3,C   4,C  10)          118.87  0.004343   -0.51    118.35   
    42. A(C   6,C   5,H  15)          119.04 -0.001216    0.23    119.27   
    43. A(C   4,C   5,H  15)          121.13  0.003388   -0.50    120.63   
    44. A(C   4,C   5,C   6)          119.83 -0.002172    0.27    120.10   
    45. A(C   5,C   6,H  16)          120.16 -0.001325    0.24    120.41   
    46. A(C   7,C   6,H  16)          119.79  0.002176   -0.31    119.48   
    47. A(C   5,C   6,C   7)          120.05 -0.000851    0.07    120.12   
    48. A(C   6,C   7,C   9)          120.89  0.000975   -0.15    120.74   
    49. A(C   6,C   7,O   8)          117.60 -0.000369    0.06    117.66   
    50. A(O   8,C   7,C   9)          121.51 -0.000607    0.09    121.60   
    51. A(C   7,O   8,H  17)          109.09 -0.003560    0.54    109.63   
    52. A(C   7,C   9,H  18)          121.75 -0.000051    0.01    121.77   
    53. A(C  10,C   9,H  18)          119.95  0.001578   -0.24    119.71   
    54. A(C   7,C   9,C  10)          118.30 -0.001527    0.23    118.52   
    55. A(C   9,C  10,O  11)          117.40  0.003481   -0.44    116.95   
    56. A(C   4,C  10,O  11)          120.59 -0.006870    0.81    121.40   
    57. A(C   4,C  10,C   9)          122.01  0.003389   -0.37    121.65   
    58. A(C  10,O  11,C  12)          121.81 -0.003681    0.29    122.09   
    59. A(O  11,C  12,O  13)          120.85  0.012149   -1.49    119.36   
    60. A(C   2,C  12,O  13)          122.31 -0.011201    1.41    123.71   
    61. A(C   2,C  12,O  11)          116.84 -0.000948    0.08    116.92   
    62. A(H  20,O  19,H  21)          103.98 -0.002587    0.95    104.93   
    63. A(N   0,O  19,C   1)           11.57  0.003855   -0.12     11.45   
    64. A(C   1,O  19,H  21)          165.75  0.003922   -0.65    165.10   
    65. A(C   1,O  19,H  20)           90.21 -0.001293   -0.34     89.87   
    66. A(N   0,O  19,H  21)          154.68  0.000141   -0.53    154.15   
    67. A(N   0,O  19,H  20)          100.41  0.002102   -0.54     99.86   
    68. D(C   3,C   2,N   0,O  19)    -13.79 -0.000303   -0.16    -13.96   
    69. D(C  12,C   2,N   0,O  19)    166.21  0.000131   -0.07    166.14   
    70. D(C  12,C   2,C   1,O  19)    166.65 -0.000164   -0.05    166.60   
    71. D(C   3,C   2,C   1,O  19)    -13.35 -0.000108   -0.08    -13.44   
    72. D(H  14,C   3,C   2,C   1)      0.00 -0.000097    0.01      0.01   
    73. D(C   4,C   3,C   2,C  12)     -0.00 -0.000001    0.01      0.01   
    74. D(H  14,C   3,C   2,C  12)   -180.00 -0.000039   -0.03   -180.03   
    75. D(C   4,C   3,C   2,C   1)    180.00 -0.000059    0.05    180.05   
    76. D(C  10,C   4,C   3,H  14)    180.00  0.000034    0.03    180.03   
    77. D(C  10,C   4,C   3,C   2)      0.00 -0.000002   -0.01     -0.01   
    78. D(C   5,C   4,C   3,H  14)     -0.00  0.000039    0.01      0.01   
    79. D(C   5,C   4,C   3,C   2)   -180.00  0.000003   -0.03   -180.03   
    80. D(C   6,C   5,C   4,C  10)     -0.00 -0.000001   -0.01     -0.01   
    81. D(H  15,C   5,C   4,C   3)     -0.00  0.000010   -0.01     -0.01   
    82. D(C   6,C   5,C   4,C   3)    180.00 -0.000006    0.01    180.01   
    83. D(H  15,C   5,C   4,C  10)    180.00  0.000015   -0.03    179.97   
    84. D(H  16,C   6,C   5,H  15)      0.00 -0.000006    0.01      0.01   
    85. D(C   7,C   6,C   5,H  15)    180.00 -0.000016    0.03    180.03   
    86. D(C   7,C   6,C   5,C   4)      0.00 -0.000001    0.00      0.00   
    87. D(H  16,C   6,C   5,C   4)   -180.00  0.000009   -0.01   -180.01   
    88. D(C   9,C   7,C   6,H  16)    180.00 -0.000007    0.01    180.01   
    89. D(O   8,C   7,C   6,H  16)      0.00 -0.000008    0.01      0.01   
    90. D(O   8,C   7,C   6,C   5)   -180.00  0.000002   -0.00   -180.00   
    91. D(C   9,C   7,C   6,C   5)      0.00  0.000003   -0.00     -0.00   
    92. D(H  17,O   8,C   7,C   6)   -180.00 -0.000013    0.02   -179.98   
    93. D(H  17,O   8,C   7,C   9)      0.00 -0.000014    0.02      0.02   
    94. D(H  18,C   9,C   7,O   8)     -0.00  0.000002   -0.01     -0.01   
    95. D(H  18,C   9,C   7,C   6)   -180.00  0.000001   -0.01   -180.01   
    96. D(C  10,C   9,C   7,O   8)    180.00 -0.000002    0.00    180.00   
    97. D(C  10,C   9,C   7,C   6)     -0.00 -0.000003    0.00      0.00   
    98. D(C   9,C  10,C   4,C   3)   -180.00  0.000005   -0.01   -180.01   
    99. D(O  11,C  10,C   9,H  18)     -0.00 -0.000007    0.00      0.00   
   100. D(O  11,C  10,C   9,C   7)   -180.00 -0.000003   -0.01   -180.01   
   101. D(C   4,C  10,C   9,H  18)    180.00 -0.000003    0.01    180.00   
   102. D(C   4,C  10,C   9,C   7)      0.00  0.000001   -0.00     -0.00   
   103. D(O  11,C  10,C   4,C   5)   -180.00  0.000005    0.01   -179.99   
   104. D(O  11,C  10,C   4,C   3)      0.00  0.000010   -0.01     -0.01   
   105. D(C   9,C  10,C   4,C   5)      0.00  0.000001    0.01      0.01   
   106. D(C  12,O  11,C  10,C   9)    180.00 -0.000011    0.03    180.03   
   107. D(C  12,O  11,C  10,C   4)     -0.00 -0.000015    0.03      0.03   
   108. D(O  13,C  12,O  11,C  10)   -180.00  0.000004    0.02   -179.98   
   109. D(C   2,C  12,O  11,C  10)      0.00  0.000012   -0.03     -0.03   
   110. D(O  13,C  12,C   2,C   3)   -180.00  0.000005   -0.04   -180.04   
   111. D(O  13,C  12,C   2,C   1)      0.00  0.000061   -0.08     -0.08   
   112. D(O  11,C  12,C   2,C   3)      0.00 -0.000004    0.00      0.00   
   113. D(O  11,C  12,C   2,C   1)   -180.00  0.000053   -0.03   -180.03   
   114. D(N   0,O  19,C   1,C   2)    178.95  0.000308   -0.13    178.83   
   115. D(H  21,O  19,C   1,C   2)    156.46 -0.000659    0.03    156.49   
   116. D(H  21,O  19,C   1,N   0)    -22.50 -0.000967    0.16    -22.34   
   117. D(H  20,O  19,C   1,C   2)    -29.04  0.000324   -1.23    -30.27   
   118. D(H  20,O  19,C   1,N   0)    152.00  0.000016   -1.10    150.91   
   119. D(H  21,O  19,N   0,C   1)    167.28  0.002893   -0.24    167.04   
   120. D(H  20,O  19,N   0,C   1)    -28.51 -0.000196   -1.07    -29.57   
    ----------------------------------------------------------------------------

         *************************************************************
         *                GEOMETRY OPTIMIZATION CYCLE   2            *
         *************************************************************
---------------------------------
CARTESIAN COORDINATES (ANGSTROEM)
---------------------------------
  N     4.545907   -0.168133    2.039916
  C     3.480241    0.022709    1.666392
  C     2.169539    0.194112    1.160638
  C     1.638622   -0.705781    0.304694
  C     0.308644   -0.514636   -0.198344
  C    -0.299549   -1.405764   -1.085900
  C    -1.583128   -1.167505   -1.535533
  C    -2.277208   -0.035732   -1.105021
  O    -3.533067    0.149255   -1.577371
  C    -1.691668    0.863416   -0.222913
  C    -0.403418    0.611916    0.220050
  O     0.145242    1.523751    1.092961
  C     1.410303    1.379088    1.595887
  O     1.841684    2.207198    2.357432
  H     2.191178   -1.577418   -0.018874
  H     0.224278   -2.284272   -1.427734
  H    -2.057012   -1.851591   -2.220432
  H    -3.902690    0.962157   -1.207371
  H    -2.212989    1.743655    0.120546
  O     6.428689   -3.888056    1.560641
  H     5.660115   -4.465215    1.579837
  H     7.184716   -4.482150    1.564755

----------------------------
CARTESIAN COORDINATES (A.U.)
----------------------------
  NO LB    ZA    FRAG    MASS        X           Y           Z
   0 N   7.0000    0    14.007    8.590519   -0.317726    3.854882
   1 C   6.0000    0    12.011    6.576701    0.042913    3.149024
   2 C   6.0000    0    12.011    4.099835    0.366819    2.193287
   3 C   6.0000    0    12.011    3.096547   -1.333732    0.575789
   4 C   6.0000    0    12.011    0.583253   -0.972521   -0.374816
   5 C   6.0000    0    12.011   -0.566066   -2.656508   -2.052054
   6 C   6.0000    0    12.011   -2.991678   -2.206265   -2.901736
   7 C   6.0000    0    12.011   -4.303300   -0.067523   -2.088187
   8 O   8.0000    0    15.999   -6.676529    0.282051   -2.980799
   9 C   6.0000    0    12.011   -3.196789    1.631620   -0.421245
  10 C   6.0000    0    12.011   -0.762350    1.156353    0.415834
  11 O   8.0000    0    15.999    0.274468    2.879472    2.065397
  12 C   6.0000    0    12.011    2.665087    2.606099    3.015790
  13 O   8.0000    0    15.999    3.480278    4.171000    4.454901
  14 H   1.0000    0     1.008    4.140726   -2.980887   -0.035667
  15 H   1.0000    0     1.008    0.423824   -4.316649   -2.698025
  16 H   1.0000    0     1.008   -3.887190   -3.499000   -4.196009
  17 H   1.0000    0     1.008   -7.375015    1.818214   -2.281600
  18 H   1.0000    0     1.008   -4.181943    3.295030    0.227799
  19 O   8.0000    0    15.999   12.148462   -7.347362    2.949184
  20 H   1.0000    0     1.008   10.696068   -8.438034    2.985458
  21 H   1.0000    0     1.008   13.577145   -8.470035    2.956958

      -----------------------------------------------------------      
     |                   =====================                   |     
     |                           x T B                           |     
     |                   =====================                   |     
     |                         S. Grimme                         |     
     |          Mulliken Center for Theoretical Chemistry        |     
     |                    University of Bonn                     |     
      -----------------------------------------------------------      

   * xtb version 6.6.1 (8d0f1dd) compiled by 'stahn@M-Bot' on 2023-08-01

   xtb is free software: you can redistribute it and/or modify it under
   the terms of the GNU Lesser General Public License as published by
   the Free Software Foundation, either version 3 of the License, or
   (at your option) any later version.
   
   xtb is distributed in the hope that it will be useful,
   but WITHOUT ANY WARRANTY; without even the implied warranty of
   MERCHANTABILITY or FITNESS FOR A PARTICULAR PURPOSE.  See the
   GNU Lesser General Public License for more details.
   
   Cite this work as:
   * C. Bannwarth, E. Caldeweyher, S. Ehlert, A. Hansen, P. Pracht,
     J. Seibert, S. Spicher, S. Grimme, WIREs Comput. Mol. Sci., 2020, 11,
     e01493. DOI: 10.1002/wcms.1493
   
   for GFN2-xTB:
   * C. Bannwarth, S. Ehlert and S. Grimme., J. Chem. Theory Comput., 2019,
     15, 1652-1671. DOI: 10.1021/acs.jctc.8b01176
   for GFN1-xTB:
   * S. Grimme, C. Bannwarth, P. Shushkov, J. Chem. Theory Comput., 2017,
     13, 1989-2009. DOI: 10.1021/acs.jctc.7b00118
   for GFN0-xTB:
   * P. Pracht, E. Caldeweyher, S. Ehlert, S. Grimme, ChemRxiv, 2019, preprint.
     DOI: 10.26434/chemrxiv.8326202.v1
   for GFN-FF:
   * S. Spicher and S. Grimme, Angew. Chem. Int. Ed., 2020, 59, 15665-15673.
     DOI: 10.1002/anie.202004239
   
   for ALPB and GBSA implicit solvation:
   * S. Ehlert, M. Stahn, S. Spicher, S. Grimme, J. Chem. Theory Comput.,
     2021, 17, 4250-4261. DOI: 10.1021/acs.jctc.1c00471
   
   for DFT-D4:
   * E. Caldeweyher, C. Bannwarth and S. Grimme, J. Chem. Phys., 2017,
     147, 034112. DOI: 10.1063/1.4993215
   * E. Caldeweyher, S. Ehlert, A. Hansen, H. Neugebauer, S. Spicher,
     C. Bannwarth and S. Grimme, J. Chem. Phys., 2019, 150, 154122.
     DOI: 10.1063/1.5090222
   * E. Caldeweyher, J.-M. Mewes, S. Ehlert and S. Grimme, Phys. Chem. Chem. Phys.
     2020, 22, 8499-8512. DOI: 10.1039/D0CP00502A
   
   for sTDA-xTB:
   * S. Grimme and C. Bannwarth, J. Chem. Phys., 2016, 145, 054103.
     DOI: 10.1063/1.4959605
   
   in the mass-spec context:
   * V. Asgeirsson, C. Bauer and S. Grimme, Chem. Sci., 2017, 8, 4879.
     DOI: 10.1039/c7sc00601b
   * J. Koopman and S. Grimme, ACS Omega 2019, 4, 12, 15120-15133.
     DOI: 10.1021/acsomega.9b02011
   
   for metadynamics refer to:
   * S. Grimme, J. Chem. Theory Comput., 2019, 155, 2847-2862
     DOI: 10.1021/acs.jctc.9b00143
   
   for SPH calculations refer to:
   * S. Spicher and S. Grimme, J. Chem. Theory Comput., 2021, 17, 1701-1714
     DOI: 10.1021/acs.jctc.0c01306
   
   with help from (in alphabetical order)
   P. Atkinson, C. Bannwarth, F. Bohle, G. Brandenburg, E. Caldeweyher
   M. Checinski, S. Dohm, S. Ehlert, S. Ehrlich, I. Gerasimov, C. Hölzer
   A. Katbashev, J. Koopman, C. Lavigne, S. Lehtola, F. März, M. Müller,
   F. Musil, H. Neugebauer, J. Pisarek, C. Plett, P. Pracht, F. Pultar,
   J. Seibert, P. Shushkov, S. Spicher, M. Stahn, M. Steiner, T. Strunk,
   J. Stückrath, T. Rose, and J. Unsleber
   
 * started run on 2025/01/14 at 20:45:30.113     

           -------------------------------------------------
          |                Calculation Setup                |
           -------------------------------------------------

          program call               : /home/jang/cal_tmp/10_orca/orca_5_0_4_linux_x86-64_shared_openmpi411/otool_xtb /home/jang/cal_tmp/10_orca/Gen_chromophore/Gen_molecular_pairs_cal/mol_1_1.xyz/input_XTB.xyz --grad -c 0 -u 0 -P 4 --namespace /home/jang/cal_tmp/10_orca/Gen_chromophore/Gen_molecular_pairs_cal/mol_1_1.xyz/input --input /home/jang/cal_tmp/10_orca/Gen_chromophore/Gen_molecular_pairs_cal/mol_1_1.xyz/input_XTB.input.tmp --acc 1.000000
          hostname                   : node02
          calculation namespace      : /home/jang/cal_tmp/10_orca/Gen_chromophore/Gen_molecular_pairs_cal/mol_1_1.xyz/input
          coordinate file            : /home/jang/cal_tmp/10_orca/Gen_chromophore/Gen_molecular_pairs_cal/mol_1_1.xyz/input_XTB.xyz
          omp threads                :                     4

   ID    Z sym.   atoms
    1    7 N      1
    2    6 C      2-8, 10, 11, 13
    3    8 O      9, 12, 14, 20
    4    1 H      15-19, 21, 22

molecular fragmentation (1/2 indicates fragments):
1111111111111111111222
# atoms in fragment 1/2:    19     3
 fragment masses (1/2) :      187.15       18.02
CMA distance (Bohr)    :  14.154
constraining FC (au)   :  0.0500

           -------------------------------------------------
          |                 G F N 2 - x T B                 |
           -------------------------------------------------

        Reference                      10.1021/acs.jctc.8b01176
      * Hamiltonian:
        H0-scaling (s, p, d)           1.850000    2.230000    2.230000
        zeta-weighting                 0.500000
      * Dispersion:
        s8                             2.700000
        a1                             0.520000
        a2                             5.000000
        s9                             5.000000
      * Repulsion:
        kExp                           1.500000    1.000000
        rExp                           1.000000
      * Coulomb:
        alpha                          2.000000
        third order                    shell-resolved
        anisotropic                    true
        a3                             3.000000
        a5                             4.000000
        cn-shift                       1.200000
        cn-exp                         4.000000
        max-rad                        5.000000

q/qsh data taken from xtbrestart
CAMM data taken from xtbrestart

          ...................................................
          :                      SETUP                      :
          :.................................................:
          :  # basis functions                  67          :
          :  # atomic orbitals                  67          :
          :  # shells                           37          :
          :  # electrons                        76          :
          :  max. iterations                   250          :
          :  Hamiltonian                  GFN2-xTB          :
          :  restarted?                       true          :
          :  GBSA solvation                  false          :
          :  PC potential                    false          :
          :  electronic temp.          300.0000000     K    :
          :  accuracy                    1.0000000          :
          :  -> integral cutoff          0.2500000E+02      :
          :  -> integral neglect         0.1000000E-07      :
          :  -> SCF convergence          0.1000000E-05 Eh   :
          :  -> wf. convergence          0.1000000E-03 e    :
          :  Broyden damping             0.4000000          :
          ...................................................

 iter      E             dE          RMSdq      gap      omega  full diag
   1    -44.7262216 -0.447262E+02  0.217E-01    2.70       0.0  T
   2    -44.7265469 -0.325300E-03  0.140E-01    2.70       1.0  T
   3    -44.7266276 -0.806994E-04  0.796E-02    2.71       1.0  T
   4    -44.7266340 -0.639434E-05  0.218E-02    2.70       1.0  T
   5    -44.7266385 -0.457462E-05  0.913E-03    2.71       2.3  T
   6    -44.7266401 -0.157988E-05  0.345E-03    2.71       6.2  T
   7    -44.7266402 -0.889558E-07  0.173E-03    2.71      12.3  T
   8    -44.7266402 -0.867544E-08  0.683E-04    2.71      31.2  T
   9    -44.7266402 -0.120112E-08  0.400E-04    2.71      53.3  T

   *** convergence criteria satisfied after 9 iterations ***

         #    Occupation            Energy/Eh            Energy/eV
      -------------------------------------------------------------
         1        2.0000           -0.7676964             -20.8901
       ...           ...                  ...                  ...
        32        2.0000           -0.4688027             -12.7568
        33        2.0000           -0.4589716             -12.4893
        34        2.0000           -0.4409051             -11.9976
        35        2.0000           -0.4375920             -11.9075
        36        2.0000           -0.4327965             -11.7770
        37        2.0000           -0.4212118             -11.4618
        38        2.0000           -0.4154240             -11.3043 (HOMO)
        39                         -0.3159613              -8.5977 (LUMO)
        40                         -0.2685285              -7.3070
        41                         -0.2445437              -6.6544
        42                         -0.2211319              -6.0173
        43                         -0.2120194              -5.7693
       ...                                ...                  ...
        67                          1.1679695              31.7821
      -------------------------------------------------------------
                  HL-Gap            0.0994627 Eh            2.7065 eV
             Fermi-level           -0.3656926 Eh           -9.9510 eV

 SCC (total)                   0 d,  0 h,  0 min,  0.055 sec
 SCC setup                      ...        0 min,  0.001 sec (  0.925%)
 Dispersion                     ...        0 min,  0.000 sec (  0.865%)
 classical contributions        ...        0 min,  0.000 sec (  0.195%)
 integral evaluation            ...        0 min,  0.003 sec (  4.699%)
 iterations                     ...        0 min,  0.047 sec ( 84.211%)
 molecular gradient             ...        0 min,  0.005 sec (  8.340%)
 printout                       ...        0 min,  0.000 sec (  0.566%)

         :::::::::::::::::::::::::::::::::::::::::::::::::::::
         ::                     SUMMARY                     ::
         :::::::::::::::::::::::::::::::::::::::::::::::::::::
         :: total energy             -44.116280637047 Eh    ::
         :: gradient norm              0.038731481713 Eh/a0 ::
         :: HOMO-LUMO gap              2.706517274749 eV    ::
         ::.................................................::
         :: SCC energy               -44.726640211358 Eh    ::
         :: -> isotropic ES            0.099887211210 Eh    ::
         :: -> anisotropic ES          0.004326965391 Eh    ::
         :: -> anisotropic XC          0.020613470007 Eh    ::
         :: -> dispersion             -0.019707596714 Eh    ::
         :: repulsion energy           0.610426048104 Eh    ::
         :: add. restraining           0.000000000000 Eh    ::
         :: total charge               0.000000000000 e     ::
         :::::::::::::::::::::::::::::::::::::::::::::::::::::


Property printout bound to 'properties.out'

           -------------------------------------------------
          | TOTAL ENERGY              -44.116280637047 Eh   |
          | GRADIENT NORM               0.038731481713 Eh/α |
          | HOMO-LUMO GAP               2.706517274749 eV   |
           -------------------------------------------------

------------------------------------------------------------------------
 * finished run on 2025/01/14 at 20:45:30.403     
------------------------------------------------------------------------
 total:
 * wall-time:     0 d,  0 h,  0 min,  0.288 sec
 *  cpu-time:     0 d,  0 h,  0 min,  0.756 sec
 * ratio c/w:     2.620 speedup
 SCF:
 * wall-time:     0 d,  0 h,  0 min,  0.056 sec
 *  cpu-time:     0 d,  0 h,  0 min,  0.204 sec
 * ratio c/w:     3.651 speedup


-------------------------   --------------------
FINAL SINGLE POINT ENERGY       -44.116280637050
-------------------------   --------------------

------------------------------------------------------------------------------
                         ORCA GEOMETRY RELAXATION STEP
------------------------------------------------------------------------------

Reading the OPT-File                    .... done
Getting information on internals        .... done
Copying old internal coords+grads       .... done
Making the new internal coordinates     .... (new redundants).... done
Validating the new internal coordinates .... (new redundants).... done
Calculating the B-matrix                .... done
Calculating the G,G- and P matrices     .... done
Transforming gradient to internals      .... done
Projecting the internal gradient        .... done
Number of atoms                         ....  22
Number of internal coordinates          .... 120
Current Energy                          ....   -44.116280637 Eh
Current gradient norm                   ....     0.038731482 Eh/bohr
Maximum allowed component of the step   ....  0.300
Current trust radius                    ....  0.300
Updating the Hessian (BFGS)             .... done
Forming the augmented Hessian           .... done
Diagonalizing the augmented Hessian     .... done
Last element of RFO vector              ....  0.983930488
Lowest eigenvalues of augmented Hessian:
 -0.001862018  0.000039132  0.001257693  0.001596319  0.001772901
Length of the computed step             ....  0.181468040
The final length of the internal step   ....  0.181468040
Converting the step to cartesian space:
 Initial RMS(Int)=    0.0165656898
Transforming coordinates:
 Iter   0:  RMS(Cart)=    0.0213702387 RMS(Int)=    0.8098676548
 Iter   1:  RMS(Cart)=    0.0003307007 RMS(Int)=    0.0003065327
 Iter   2:  RMS(Cart)=    0.0000164480 RMS(Int)=    0.0000149151
 Iter   3:  RMS(Cart)=    0.0000008259 RMS(Int)=    0.0000007751
 Iter   4:  RMS(Cart)=    0.0000000399 RMS(Int)=    0.0000000356
done
Storing new coordinates                 .... done

                                .--------------------.
          ----------------------|Geometry convergence|-------------------------
          Item                value                   Tolerance       Converged
          ---------------------------------------------------------------------
          Energy change      -0.0060502602            0.0000050000      NO
          RMS gradient        0.0021801634            0.0001000000      NO
          MAX gradient        0.0132732729            0.0003000000      NO
          RMS step            0.0165656898            0.0020000000      NO
          MAX step            0.0773549337            0.0040000000      NO
          ........................................................
          Max(Bonds)      0.0291      Max(Angles)    1.20
          Max(Dihed)        4.43      Max(Improp)    0.00
          ---------------------------------------------------------------------

The optimization has not yet converged - more geometry cycles are needed


    ---------------------------------------------------------------------------
                         Redundant Internal Coordinates
                            (Angstroem and degrees)

        Definition                    Value    dE/dq     Step     New-Value
    ----------------------------------------------------------------------------
     1. B(C   1,N   0)                1.1452  0.000401 -0.0017    1.1435   
     2. B(C   2,C   1)                1.4153  0.001101 -0.0017    1.4136   
     3. B(C   3,C   2)                1.3507 -0.006115  0.0070    1.3577   
     4. B(C   4,C   3)                1.4347  0.005683 -0.0095    1.4252   
     5. B(C   5,C   4)                1.3971 -0.003092  0.0038    1.4008   
     6. B(C   6,C   5)                1.3808  0.005832 -0.0086    1.3722   
     7. B(C   7,C   6)                1.3957 -0.003506  0.0042    1.3999   
     8. B(O   8,C   7)                1.3544  0.004278 -0.0057    1.3487   
     9. B(C   9,C   7)                1.3890 -0.000363  0.0004    1.3894   
    10. B(C  10,C   9)                1.3853 -0.001267  0.0009    1.3862   
    11. B(C  10,C   4)                1.3969 -0.004737  0.0059    1.4028   
    12. B(O  11,C  10)                1.3764  0.013273 -0.0213    1.3551   
    13. B(C  12,O  11)                1.3690  0.004291 -0.0079    1.3611   
    14. B(C  12,C   2)                1.4731  0.000515 -0.0012    1.4719   
    15. B(O  13,C  12)                1.2049  0.006150 -0.0062    1.1987   
    16. B(H  14,C   3)                1.0816  0.000376 -0.0013    1.0803   
    17. B(H  15,C   5)                1.0784  0.000157 -0.0010    1.0774   
    18. B(H  16,C   6)                1.0778  0.000328 -0.0014    1.0764   
    19. B(H  17,O   8)                0.9666  0.000580 -0.0013    0.9653   
    20. B(H  18,C   9)                1.0791  0.000194 -0.0008    1.0783   
    21. B(O  19,H  14)                5.0784 -0.000688  0.0156    5.0940   
    22. B(O  19,C   1)                4.8988 -0.000274  0.0168    4.9156   
    23. B(O  19,N   0)                4.1967 -0.001310  0.0289    4.2256   
    24. B(H  20,H  14)                4.7884  0.000430  0.0291    4.8175   
    25. B(H  20,C   1)                4.9901  0.000873  0.0088    4.9988   
    26. B(H  20,N   0)                4.4630  0.000035  0.0144    4.4774   
    27. B(H  20,O  19)                0.9613  0.001065 -0.0023    0.9590   
    28. B(H  21,N   0)                5.0794  0.000416  0.0221    5.1015   
    29. B(H  21,O  19)                0.9615  0.000638 -0.0022    0.9593   
    30. A(C   1,N   0,O  19)          121.86  0.000467   -0.71    121.16   
    31. A(C   2,C   1,O  19)          130.27  0.000596   -0.15    130.12   
    32. A(N   0,C   1,O  19)           46.68 -0.000451    0.68     47.36   
    33. A(C   3,C   2,C  12)          121.37  0.000712   -0.08    121.29   
    34. A(C   1,C   2,C  12)          117.98  0.000295   -0.15    117.83   
    35. A(C   1,C   2,C   3)          120.65 -0.001007    0.23    120.88   
    36. A(C   4,C   3,H  14)          118.43 -0.001793    0.33    118.76   
    37. A(C   2,C   3,C   4)          119.86  0.000866   -0.11    119.74   
    38. A(C   2,C   3,H  14)          121.72  0.000927   -0.22    121.50   
    39. A(C   3,C   4,C   5)          122.77 -0.003144    0.60    123.38   
    40. A(C   5,C   4,C  10)          118.87  0.000987   -0.19    118.68   
    41. A(C   3,C   4,C  10)          118.36  0.002157   -0.41    117.94   
    42. A(C   6,C   5,H  15)          119.27 -0.001299    0.35    119.61   
    43. A(C   4,C   5,H  15)          120.63  0.003300   -0.73    119.90   
    44. A(C   4,C   5,C   6)          120.10 -0.002001    0.38    120.48   
    45. A(C   5,C   6,H  16)          120.41 -0.001541    0.40    120.80   
    46. A(C   7,C   6,H  16)          119.48  0.002206   -0.48    119.00   
    47. A(C   5,C   6,C   7)          120.12 -0.000664    0.08    120.20   
    48. A(C   6,C   7,C   9)          120.74  0.001506   -0.32    120.42   
    49. A(C   6,C   7,O   8)          117.66 -0.000335    0.08    117.75   
    50. A(O   8,C   7,C   9)          121.60 -0.001170    0.24    121.83   
    51. A(C   7,O   8,H  17)          109.63 -0.002771    0.63    110.26   
    52. A(C   7,C   9,H  18)          121.77  0.000837   -0.15    121.62   
    53. A(C  10,C   9,H  18)          119.71  0.001564   -0.33    119.37   
    54. A(C   7,C   9,C  10)          118.53 -0.002401    0.48    119.01   
    55. A(C   9,C  10,O  11)          116.95 -0.000568    0.07    117.02   
    56. A(C   4,C  10,O  11)          121.40 -0.002007    0.37    121.77   
    57. A(C   4,C  10,C   9)          121.65  0.002574   -0.44    121.20   
    58. A(C  10,O  11,C  12)          122.10 -0.003542    0.59    122.68   
    59. A(O  11,C  12,O  13)          119.37  0.004325   -0.85    118.52   
    60. A(C   2,C  12,O  13)          123.72 -0.006138    1.20    124.92   
    61. A(C   2,C  12,O  11)          116.92  0.001813   -0.35    116.57   
    62. A(H  20,O  19,H  21)          104.93 -0.002222    1.09    106.01   
    63. A(N   0,O  19,C   1)           11.45 -0.000015    0.03     11.49   
    64. A(C   1,O  19,H  21)          165.10  0.001724   -0.76    164.34   
    65. A(C   1,O  19,H  20)           89.87  0.000526   -0.44     89.43   
    66. A(N   0,O  19,H  21)          154.15  0.001720   -0.78    153.37   
    67. A(N   0,O  19,H  20)           99.86  0.000543   -0.83     99.03   
    68. D(C   3,C   2,N   0,O  19)    -13.95  0.000114    0.46    -13.49   
    69. D(C  12,C   2,N   0,O  19)    166.14  0.000084    0.11    166.25   
    70. D(C  12,C   2,C   1,O  19)    166.60  0.000067   -0.22    166.37   
    71. D(C   3,C   2,C   1,O  19)    -13.44  0.000092   -0.26    -13.70   
    72. D(H  14,C   3,C   2,C   1)      0.01  0.000005    0.04      0.04   
    73. D(C   4,C   3,C   2,C  12)      0.01 -0.000003    0.03      0.05   
    74. D(H  14,C   3,C   2,C  12)    179.97  0.000031   -0.00    179.97   
    75. D(C   4,C   3,C   2,C   1)   -179.95 -0.000029    0.07   -179.88   
    76. D(C  10,C   4,C   3,H  14)   -179.97 -0.000031    0.03   -179.94   
    77. D(C  10,C   4,C   3,C   2)     -0.01  0.000004   -0.00     -0.02   
    78. D(C   5,C   4,C   3,H  14)      0.01 -0.000023    0.01      0.02   
    79. D(C   5,C   4,C   3,C   2)    179.97  0.000012   -0.03    179.94   
    80. D(C   6,C   5,C   4,C  10)     -0.01  0.000006   -0.01     -0.02   
    81. D(H  15,C   5,C   4,C   3)     -0.01  0.000001   -0.00     -0.01   
    82. D(C   6,C   5,C   4,C   3)   -179.99 -0.000003    0.01   -179.98   
    83. D(H  15,C   5,C   4,C  10)    179.97  0.000009   -0.02    179.95   
    84. D(H  16,C   6,C   5,H  15)      0.01 -0.000003    0.01      0.02   
    85. D(C   7,C   6,C   5,H  15)   -179.97 -0.000006    0.02   -179.96   
    86. D(C   7,C   6,C   5,C   4)      0.00 -0.000002    0.00      0.01   
    87. D(H  16,C   6,C   5,C   4)    179.99  0.000001   -0.00    179.98   
    88. D(C   9,C   7,C   6,H  16)   -179.99 -0.000005    0.01   -179.98   
    89. D(O   8,C   7,C   6,H  16)      0.01 -0.000004    0.01      0.02   
    90. D(O   8,C   7,C   6,C   5)    180.00 -0.000001    0.00    180.00   
    91. D(C   9,C   7,C   6,C   5)     -0.00 -0.000002    0.00      0.00   
    92. D(H  17,O   8,C   7,C   6)   -179.98 -0.000010    0.02   -179.95   
    93. D(H  17,O   8,C   7,C   9)      0.02 -0.000009    0.02      0.04   
    94. D(H  18,C   9,C   7,O   8)     -0.01  0.000004   -0.01     -0.01   
    95. D(H  18,C   9,C   7,C   6)    179.99  0.000005   -0.01    179.99   
    96. D(C  10,C   9,C   7,O   8)   -180.00  0.000001   -0.00   -180.00   
    97. D(C  10,C   9,C   7,C   6)      0.00  0.000002   -0.00     -0.00   
    98. D(C   9,C  10,C   4,C   3)    179.99  0.000002   -0.01    179.98   
    99. D(O  11,C  10,C   9,H  18)      0.00  0.000002    0.01      0.01   
   100. D(O  11,C  10,C   9,C   7)    179.99  0.000005    0.00    180.00   
   101. D(C   4,C  10,C   9,H  18)   -180.00 -0.000001    0.00   -179.99   
   102. D(C   4,C  10,C   9,C   7)     -0.00  0.000002   -0.00     -0.01   
   103. D(O  11,C  10,C   4,C   5)   -179.99 -0.000008    0.00   -179.99   
   104. D(O  11,C  10,C   4,C   3)     -0.01 -0.000001   -0.02     -0.03   
   105. D(C   9,C  10,C   4,C   5)      0.01 -0.000005    0.01      0.02   
   106. D(C  12,O  11,C  10,C   9)   -179.97 -0.000006    0.00   -179.97   
   107. D(C  12,O  11,C  10,C   4)      0.03 -0.000003    0.01      0.04   
   108. D(O  13,C  12,O  11,C  10)   -179.98  0.000015   -0.03   -180.01   
   109. D(C   2,C  12,O  11,C  10)     -0.02  0.000003    0.02     -0.01   
   110. D(O  13,C  12,C   2,C   3)    179.96 -0.000006    0.01    179.97   
   111. D(O  13,C  12,C   2,C   1)     -0.08  0.000018   -0.03     -0.11   
   112. D(O  11,C  12,C   2,C   3)      0.00  0.000001   -0.04     -0.04   
   113. D(O  11,C  12,C   2,C   1)    179.97  0.000026   -0.08    179.89   
   114. D(N   0,O  19,C   1,C   2)    178.83  0.000056    1.26    180.09   
   115. D(H  21,O  19,C   1,C   2)    156.49 -0.000112    1.16    157.65   
   116. D(H  21,O  19,C   1,N   0)    -22.34 -0.000168   -0.10    -22.44   
   117. D(H  20,O  19,C   1,C   2)    -30.27  0.000385   -3.16    -33.42   
   118. D(H  20,O  19,C   1,N   0)    150.91  0.000330   -4.42    146.49   
   119. D(H  21,O  19,N   0,C   1)    167.05  0.000580   -0.36    166.69   
   120. D(H  20,O  19,N   0,C   1)    -29.57  0.000282   -4.43    -34.00   
    ----------------------------------------------------------------------------

         *************************************************************
         *                GEOMETRY OPTIMIZATION CYCLE   3            *
         *************************************************************
---------------------------------
CARTESIAN COORDINATES (ANGSTROEM)
---------------------------------
  N     4.536839   -0.156826    2.050774
  C     3.478416    0.024273    1.657652
  C     2.168526    0.188976    1.152307
  C     1.635343   -0.714535    0.290405
  C     0.313215   -0.523101   -0.206084
  C    -0.310295   -1.405308   -1.097847
  C    -1.586864   -1.162682   -1.538783
  C    -2.279516   -0.027962   -1.100264
  O    -3.531311    0.162148   -1.564969
  C    -1.683000    0.862404   -0.216013
  C    -0.393115    0.609853    0.224523
  O     0.149463    1.504320    1.085873
  C     1.406659    1.369900    1.589901
  O     1.812184    2.206243    2.346902
  H     2.191632   -1.582199   -0.033383
  H     0.214386   -2.281139   -1.441959
  H    -2.070779   -1.836939   -2.224174
  H    -3.905477    0.971925   -1.196039
  H    -2.198649    1.742413    0.133967
  O     6.441972   -3.896253    1.555580
  H     5.674121   -4.466458    1.629399
  H     7.204677   -4.478050    1.566487

----------------------------
CARTESIAN COORDINATES (A.U.)
----------------------------
  NO LB    ZA    FRAG    MASS        X           Y           Z
   0 N   7.0000    0    14.007    8.573383   -0.296358    3.875402
   1 C   6.0000    0    12.011    6.573253    0.045870    3.132508
   2 C   6.0000    0    12.011    4.097921    0.357113    2.177545
   3 C   6.0000    0    12.011    3.090351   -1.350275    0.548786
   4 C   6.0000    0    12.011    0.591891   -0.988518   -0.389442
   5 C   6.0000    0    12.011   -0.586373   -2.655647   -2.074630
   6 C   6.0000    0    12.011   -2.998738   -2.197151   -2.907879
   7 C   6.0000    0    12.011   -4.307660   -0.052840   -2.079199
   8 O   8.0000    0    15.999   -6.673211    0.306416   -2.957362
   9 C   6.0000    0    12.011   -3.180409    1.629707   -0.408205
  10 C   6.0000    0    12.011   -0.742880    1.152455    0.424286
  11 O   8.0000    0    15.999    0.282444    2.842752    2.052003
  12 C   6.0000    0    12.011    2.658201    2.588736    3.004478
  13 O   8.0000    0    15.999    3.424532    4.169195    4.435002
  14 H   1.0000    0     1.008    4.141584   -2.989922   -0.063085
  15 H   1.0000    0     1.008    0.405131   -4.310727   -2.724908
  16 H   1.0000    0     1.008   -3.913205   -3.471311   -4.203080
  17 H   1.0000    0     1.008   -7.380282    1.836672   -2.260185
  18 H   1.0000    0     1.008   -4.154844    3.292683    0.253161
  19 O   8.0000    0    15.999   12.173563   -7.362850    2.939621
  20 H   1.0000    0     1.008   10.722535   -8.440382    3.079117
  21 H   1.0000    0     1.008   13.614866   -8.462287    2.960231

      -----------------------------------------------------------      
     |                   =====================                   |     
     |                           x T B                           |     
     |                   =====================                   |     
     |                         S. Grimme                         |     
     |          Mulliken Center for Theoretical Chemistry        |     
     |                    University of Bonn                     |     
      -----------------------------------------------------------      

   * xtb version 6.6.1 (8d0f1dd) compiled by 'stahn@M-Bot' on 2023-08-01

   xtb is free software: you can redistribute it and/or modify it under
   the terms of the GNU Lesser General Public License as published by
   the Free Software Foundation, either version 3 of the License, or
   (at your option) any later version.
   
   xtb is distributed in the hope that it will be useful,
   but WITHOUT ANY WARRANTY; without even the implied warranty of
   MERCHANTABILITY or FITNESS FOR A PARTICULAR PURPOSE.  See the
   GNU Lesser General Public License for more details.
   
   Cite this work as:
[...]
    60. A(C   2,C  12,O  13)          125.97 -0.000023    0.01    125.98   
    61. A(C   2,C  12,O  11)          115.84 -0.000003    0.00    115.85   
    62. A(H  20,O  19,H  21)          106.71  0.000022   -0.02    106.68   
    63. A(N   0,O  19,C   1)           20.56  0.000011    0.00     20.57   
    64. A(C   1,O  19,H  21)          149.25  0.000018   -0.04    149.21   
    65. A(C   1,O  19,H  20)           42.55 -0.000004    0.03     42.58   
    66. A(N   0,O  19,H  21)          128.69  0.000007   -0.03    128.66   
    67. A(N   0,O  19,H  20)           21.99 -0.000015    0.04     22.03   
    68. D(C   3,C   2,N   0,O  19)      0.13  0.000003   -0.05      0.08   
    69. D(C  12,C   2,N   0,O  19)   -179.86  0.000005   -0.05   -179.91   
    70. D(C  12,C   2,C   1,O  19)   -179.86  0.000005   -0.05   -179.91   
    71. D(C   3,C   2,C   1,O  19)      0.13  0.000004   -0.05      0.08   
    72. D(H  14,C   3,C   2,C   1)     -0.02 -0.000002    0.01     -0.01   
    73. D(C   4,C   3,C   2,C  12)     -0.02 -0.000003    0.00     -0.02   
    74. D(H  14,C   3,C   2,C  12)    179.97 -0.000004    0.01    179.98   
    75. D(C   4,C   3,C   2,C   1)    180.00 -0.000002   -0.01    179.99   
    76. D(C  10,C   4,C   3,H  14)   -179.97  0.000004   -0.03   -180.00   
    77. D(C  10,C   4,C   3,C   2)      0.02  0.000003   -0.01      0.00   
    78. D(C   5,C   4,C   3,H  14)      0.03  0.000003   -0.01      0.01   
    79. D(C   5,C   4,C   3,C   2)   -179.99  0.000002   -0.00   -179.99   
    80. D(C   6,C   5,C   4,C  10)      0.00  0.000000    0.00      0.00   
    81. D(H  15,C   5,C   4,C   3)      0.01  0.000001   -0.01     -0.01   
    82. D(C   6,C   5,C   4,C   3)   -180.00  0.000001   -0.01   -180.01   
    83. D(H  15,C   5,C   4,C  10)   -180.00  0.000001   -0.00   -180.00   
    84. D(H  16,C   6,C   5,H  15)      0.00  0.000000    0.00      0.00   
    85. D(C   7,C   6,C   5,H  15)   -180.00  0.000001   -0.00   -180.00   
    86. D(C   7,C   6,C   5,C   4)      0.00  0.000001   -0.00      0.00   
    87. D(H  16,C   6,C   5,C   4)   -180.00  0.000001   -0.00   -180.00   
    88. D(C   9,C   7,C   6,H  16)    180.00 -0.000001   -0.00    180.00   
    89. D(O   8,C   7,C   6,H  16)     -0.00 -0.000001   -0.00     -0.00   
    90. D(O   8,C   7,C   6,C   5)    179.99 -0.000001    0.00    180.00   
    91. D(C   9,C   7,C   6,C   5)     -0.01 -0.000001    0.00     -0.00   
    92. D(H  17,O   8,C   7,C   6)    179.99 -0.000001    0.00    180.00   
    93. D(H  17,O   8,C   7,C   9)     -0.01 -0.000001    0.00     -0.00   
    94. D(H  18,C   9,C   7,O   8)      0.00  0.000000    0.00      0.00   
    95. D(H  18,C   9,C   7,C   6)   -180.00  0.000000    0.00   -180.00   
    96. D(C  10,C   9,C   7,O   8)   -180.00  0.000000    0.00   -180.00   
    97. D(C  10,C   9,C   7,C   6)      0.00  0.000000    0.00      0.00   
    98. D(C   9,C  10,C   4,C   3)    179.99 -0.000002    0.02    180.01   
    99. D(O  11,C  10,C   9,H  18)      0.00  0.000001   -0.00     -0.00   
   100. D(O  11,C  10,C   9,C   7)   -180.00  0.000001   -0.00   -180.00   
   101. D(C   4,C  10,C   9,H  18)   -180.00  0.000001   -0.00   -180.00   
   102. D(C   4,C  10,C   9,C   7)      0.01  0.000001   -0.00      0.00   
   103. D(O  11,C  10,C   4,C   5)    180.00 -0.000001    0.00    180.00   
   104. D(O  11,C  10,C   4,C   3)     -0.00 -0.000002    0.02      0.01   
   105. D(C   9,C  10,C   4,C   5)     -0.01 -0.000001    0.00     -0.00   
   106. D(C  12,O  11,C  10,C   9)    180.00  0.000000   -0.00    179.99   
   107. D(C  12,O  11,C  10,C   4)     -0.01 -0.000000   -0.00     -0.01   
   108. D(O  13,C  12,O  11,C  10)   -180.00  0.000001   -0.01   -180.00   
   109. D(C   2,C  12,O  11,C  10)      0.01  0.000001   -0.01     -0.00   
   110. D(O  13,C  12,C   2,C   3)   -179.99  0.000001    0.01   -179.98   
   111. D(O  13,C  12,C   2,C   1)     -0.00 -0.000001    0.01      0.01   
   112. D(O  11,C  12,C   2,C   3)      0.01  0.000001    0.01      0.01   
   113. D(O  11,C  12,C   2,C   1)    179.99 -0.000000    0.02    180.01   
   114. D(N   0,O  19,C   1,C   2)   -180.00 -0.000001    0.00   -179.99   
   115. D(H  21,O  19,C   1,C   2)    178.99 -0.000002    0.29    179.29   
   116. D(H  21,O  19,C   1,N   0)     -1.01 -0.000000    0.29     -0.72   
   117. D(H  20,O  19,C   1,C   2)   -179.79 -0.000000   -0.02   -179.81   
   118. D(H  20,O  19,C   1,N   0)      0.21  0.000001   -0.02      0.18   
   119. D(H  21,O  19,N   0,C   1)    179.34  0.000000    0.17    179.51   
   120. D(H  20,O  19,N   0,C   1)   -179.62  0.000002   -0.07   -179.69   
    ----------------------------------------------------------------------------
                 *******************************************************
                 *** FINAL ENERGY EVALUATION AT THE STATIONARY POINT ***
                 ***               (AFTER  119 CYCLES)               ***
                 *******************************************************
---------------------------------
CARTESIAN COORDINATES (ANGSTROEM)
---------------------------------
  N     4.763760   -0.135226    2.245779
  C     3.704292    0.017918    1.833681
  C     2.408278    0.131280    1.291664
  C     1.893396   -0.877365    0.533827
  C     0.586305   -0.756867   -0.009390
  C    -0.021095   -1.745525   -0.799447
  C    -1.285505   -1.568510   -1.293600
  C    -1.993767   -0.388131   -1.013884
  O    -3.232575   -0.266138   -1.524588
  C    -1.414315    0.602904   -0.235497
  C    -0.130878    0.422546    0.265765
  O     0.391520    1.413545    1.017659
  C     1.646850    1.353510    1.568058
  O     2.024140    2.287027    2.223131
  H     2.474779   -1.769477    0.343647
  H     0.530430   -2.648777   -1.009071
  H    -1.765122   -2.318067   -1.901378
  H    -3.626608    0.578936   -1.271920
  H    -1.939713    1.518505   -0.007353
  O     4.400267   -2.893903    0.651514
  H     4.831902   -2.228708    1.197866
  H     5.022088   -3.618473    0.557791

----------------------------
CARTESIAN COORDINATES (A.U.)
----------------------------
  NO LB    ZA    FRAG    MASS        X           Y           Z
   0 N   7.0000    0    14.007    9.002201   -0.255540    4.243907
   1 C   6.0000    0    12.011    7.000097    0.033861    3.465155
   2 C   6.0000    0    12.011    4.550985    0.248082    2.440891
   3 C   6.0000    0    12.011    3.578000   -1.657979    1.008786
   4 C   6.0000    0    12.011    1.107957   -1.430271   -0.017744
   5 C   6.0000    0    12.011   -0.039864   -3.298564   -1.510736
   6 C   6.0000    0    12.011   -2.429253   -2.964054   -2.444550
   7 C   6.0000    0    12.011   -3.767673   -0.733461   -1.915962
   8 O   8.0000    0    15.999   -6.108682   -0.502929   -2.881054
   9 C   6.0000    0    12.011   -2.672669    1.139324   -0.445026
  10 C   6.0000    0    12.011   -0.247323    0.798497    0.502223
  11 O   8.0000    0    15.999    0.739866    2.671213    1.923097
  12 C   6.0000    0    12.011    3.112095    2.557764    2.963201
  13 O   8.0000    0    15.999    3.825071    4.321854    4.201109
  14 H   1.0000    0     1.008    4.676655   -3.343827    0.649399
  15 H   1.0000    0     1.008    1.002367   -5.005463   -1.906867
  16 H   1.0000    0     1.008   -3.335597   -4.380512   -3.593084
  17 H   1.0000    0     1.008   -6.853297    1.094030   -2.403580
  18 H   1.0000    0     1.008   -3.665526    2.869559   -0.013896
  19 O   8.0000    0    15.999    8.315299   -5.468685    1.231184
  20 H   1.0000    0     1.008    9.130971   -4.211647    2.263639
  21 H   1.0000    0     1.008    9.490371   -6.837922    1.054073

      -----------------------------------------------------------      
     |                   =====================                   |     
     |                           x T B                           |     
     |                   =====================                   |     
     |                         S. Grimme                         |     
     |          Mulliken Center for Theoretical Chemistry        |     
     |                    University of Bonn                     |     
      -----------------------------------------------------------      

   * xtb version 6.6.1 (8d0f1dd) compiled by 'stahn@M-Bot' on 2023-08-01

   xtb is free software: you can redistribute it and/or modify it under
   the terms of the GNU Lesser General Public License as published by
   the Free Software Foundation, either version 3 of the License, or
   (at your option) any later version.
   
   xtb is distributed in the hope that it will be useful,
   but WITHOUT ANY WARRANTY; without even the implied warranty of
   MERCHANTABILITY or FITNESS FOR A PARTICULAR PURPOSE.  See the
   GNU Lesser General Public License for more details.
   
   Cite this work as:
   * C. Bannwarth, E. Caldeweyher, S. Ehlert, A. Hansen, P. Pracht,
     J. Seibert, S. Spicher, S. Grimme, WIREs Comput. Mol. Sci., 2020, 11,
     e01493. DOI: 10.1002/wcms.1493
   
   for GFN2-xTB:
   * C. Bannwarth, S. Ehlert and S. Grimme., J. Chem. Theory Comput., 2019,
     15, 1652-1671. DOI: 10.1021/acs.jctc.8b01176
   for GFN1-xTB:
   * S. Grimme, C. Bannwarth, P. Shushkov, J. Chem. Theory Comput., 2017,
     13, 1989-2009. DOI: 10.1021/acs.jctc.7b00118
   for GFN0-xTB:
   * P. Pracht, E. Caldeweyher, S. Ehlert, S. Grimme, ChemRxiv, 2019, preprint.
     DOI: 10.26434/chemrxiv.8326202.v1
   for GFN-FF:
   * S. Spicher and S. Grimme, Angew. Chem. Int. Ed., 2020, 59, 15665-15673.
     DOI: 10.1002/anie.202004239
   
   for ALPB and GBSA implicit solvation:
   * S. Ehlert, M. Stahn, S. Spicher, S. Grimme, J. Chem. Theory Comput.,
     2021, 17, 4250-4261. DOI: 10.1021/acs.jctc.1c00471
   
   for DFT-D4:
   * E. Caldeweyher, C. Bannwarth and S. Grimme, J. Chem. Phys., 2017,
     147, 034112. DOI: 10.1063/1.4993215
   * E. Caldeweyher, S. Ehlert, A. Hansen, H. Neugebauer, S. Spicher,
     C. Bannwarth and S. Grimme, J. Chem. Phys., 2019, 150, 154122.
     DOI: 10.1063/1.5090222
   * E. Caldeweyher, J.-M. Mewes, S. Ehlert and S. Grimme, Phys. Chem. Chem. Phys.
     2020, 22, 8499-8512. DOI: 10.1039/D0CP00502A
   
   for sTDA-xTB:
   * S. Grimme and C. Bannwarth, J. Chem. Phys., 2016, 145, 054103.
     DOI: 10.1063/1.4959605
   
   in the mass-spec context:
   * V. Asgeirsson, C. Bauer and S. Grimme, Chem. Sci., 2017, 8, 4879.
     DOI: 10.1039/c7sc00601b
   * J. Koopman and S. Grimme, ACS Omega 2019, 4, 12, 15120-15133.
     DOI: 10.1021/acsomega.9b02011
   
   for metadynamics refer to:
   * S. Grimme, J. Chem. Theory Comput., 2019, 155, 2847-2862
     DOI: 10.1021/acs.jctc.9b00143
   
   for SPH calculations refer to:
   * S. Spicher and S. Grimme, J. Chem. Theory Comput., 2021, 17, 1701-1714
     DOI: 10.1021/acs.jctc.0c01306
   
   with help from (in alphabetical order)
   P. Atkinson, C. Bannwarth, F. Bohle, G. Brandenburg, E. Caldeweyher
   M. Checinski, S. Dohm, S. Ehlert, S. Ehrlich, I. Gerasimov, C. Hölzer
   A. Katbashev, J. Koopman, C. Lavigne, S. Lehtola, F. März, M. Müller,
   F. Musil, H. Neugebauer, J. Pisarek, C. Plett, P. Pracht, F. Pultar,
   J. Seibert, P. Shushkov, S. Spicher, M. Stahn, M. Steiner, T. Strunk,
   J. Stückrath, T. Rose, and J. Unsleber
   
 * started run on 2025/01/14 at 21:03:23.984     

           -------------------------------------------------
          |                Calculation Setup                |
           -------------------------------------------------

          program call               : /home/jang/cal_tmp/10_orca/orca_5_0_4_linux_x86-64_shared_openmpi411/otool_xtb /home/jang/cal_tmp/10_orca/Gen_chromophore/Gen_molecular_pairs_cal/mol_1_1.xyz/input_XTB.xyz --grad -c 0 -u 0 -P 4 --namespace /home/jang/cal_tmp/10_orca/Gen_chromophore/Gen_molecular_pairs_cal/mol_1_1.xyz/input --input /home/jang/cal_tmp/10_orca/Gen_chromophore/Gen_molecular_pairs_cal/mol_1_1.xyz/input_XTB.input.tmp --acc 1.000000
          hostname                   : node02
          calculation namespace      : /home/jang/cal_tmp/10_orca/Gen_chromophore/Gen_molecular_pairs_cal/mol_1_1.xyz/input
          coordinate file            : /home/jang/cal_tmp/10_orca/Gen_chromophore/Gen_molecular_pairs_cal/mol_1_1.xyz/input_XTB.xyz
          omp threads                :                     4

   ID    Z sym.   atoms
    1    7 N      1
    2    6 C      2-8, 10, 11, 13
    3    8 O      9, 12, 14, 20
    4    1 H      15-19, 21, 22

molecular fragmentation (1/2 indicates fragments):
1111111111111111111222
# atoms in fragment 1/2:    19     3
 fragment masses (1/2) :      187.15       18.02
CMA distance (Bohr)    :   9.206
constraining FC (au)   :  0.0500

           -------------------------------------------------
          |                 G F N 2 - x T B                 |
           -------------------------------------------------

        Reference                      10.1021/acs.jctc.8b01176
      * Hamiltonian:
        H0-scaling (s, p, d)           1.850000    2.230000    2.230000
        zeta-weighting                 0.500000
      * Dispersion:
        s8                             2.700000
        a1                             0.520000
        a2                             5.000000
        s9                             5.000000
      * Repulsion:
        kExp                           1.500000    1.000000
        rExp                           1.000000
      * Coulomb:
        alpha                          2.000000
        third order                    shell-resolved
        anisotropic                    true
        a3                             3.000000
        a5                             4.000000
        cn-shift                       1.200000
        cn-exp                         4.000000
        max-rad                        5.000000

q/qsh data taken from xtbrestart
CAMM data taken from xtbrestart

          ...................................................
          :                      SETUP                      :
          :.................................................:
          :  # basis functions                  67          :
          :  # atomic orbitals                  67          :
          :  # shells                           37          :
          :  # electrons                        76          :
          :  max. iterations                   250          :
          :  Hamiltonian                  GFN2-xTB          :
          :  restarted?                       true          :
          :  GBSA solvation                  false          :
          :  PC potential                    false          :
          :  electronic temp.          300.0000000     K    :
          :  accuracy                    1.0000000          :
          :  -> integral cutoff          0.2500000E+02      :
          :  -> integral neglect         0.1000000E-07      :
          :  -> SCF convergence          0.1000000E-05 Eh   :
          :  -> wf. convergence          0.1000000E-03 e    :
          :  Broyden damping             0.4000000          :
          ...................................................

 iter      E             dE          RMSdq      gap      omega  full diag
   1    -44.7395914 -0.447396E+02  0.450E-03    2.65       0.0  T
   2    -44.7395914 -0.494821E-08  0.267E-03    2.65       8.0  T
   3    -44.7395914  0.241934E-07  0.118E-03    2.65      18.1  T
   4    -44.7395914 -0.279846E-07  0.181E-04    2.65     117.7  T
   5    -44.7395914 -0.228795E-09  0.101E-04    2.65     211.5  T

   *** convergence criteria satisfied after 5 iterations ***

         #    Occupation            Energy/Eh            Energy/eV
      -------------------------------------------------------------
         1        2.0000           -0.7687731             -20.9194
       ...           ...                  ...                  ...
        32        2.0000           -0.4631625             -12.6033
        33        2.0000           -0.4570299             -12.4364
        34        2.0000           -0.4505670             -12.2606
        35        2.0000           -0.4397465             -11.9661
        36        2.0000           -0.4336870             -11.8012
        37        2.0000           -0.4215962             -11.4722
        38        2.0000           -0.4116207             -11.2008 (HOMO)
        39                         -0.3143688              -8.5544 (LUMO)
        40                         -0.2651122              -7.2141
        41                         -0.2397126              -6.5229
        42                         -0.2211370              -6.0174
        43                         -0.2191031              -5.9621
       ...                                ...                  ...
        67                          1.1601265              31.5686
      -------------------------------------------------------------
                  HL-Gap            0.0972519 Eh            2.6464 eV
             Fermi-level           -0.3629947 Eh           -9.8776 eV

 SCC (total)                   0 d,  0 h,  0 min,  0.052 sec
 SCC setup                      ...        0 min,  0.000 sec (  0.665%)
 Dispersion                     ...        0 min,  0.000 sec (  0.769%)
 classical contributions        ...        0 min,  0.000 sec (  0.111%)
 integral evaluation            ...        0 min,  0.002 sec (  4.253%)
 iterations                     ...        0 min,  0.044 sec ( 84.480%)
 molecular gradient             ...        0 min,  0.005 sec (  9.103%)
 printout                       ...        0 min,  0.000 sec (  0.437%)

         :::::::::::::::::::::::::::::::::::::::::::::::::::::
         ::                     SUMMARY                     ::
         :::::::::::::::::::::::::::::::::::::::::::::::::::::
         :: total energy             -44.128210955765 Eh    ::
         :: gradient norm              0.000216608642 Eh/a0 ::
         :: HOMO-LUMO gap              2.646360113535 eV    ::
         ::.................................................::
         :: SCC energy               -44.739591431589 Eh    ::
         :: -> isotropic ES            0.100273391957 Eh    ::
         :: -> anisotropic ES         -0.000731052644 Eh    ::
         :: -> anisotropic XC          0.019746133269 Eh    ::
         :: -> dispersion             -0.021091778025 Eh    ::
         :: repulsion energy           0.611421490363 Eh    ::
         :: add. restraining           0.000000000000 Eh    ::
         :: total charge               0.000000000000 e     ::
         :::::::::::::::::::::::::::::::::::::::::::::::::::::


Property printout bound to 'properties.out'

           -------------------------------------------------
          | TOTAL ENERGY              -44.128210955765 Eh   |
          | GRADIENT NORM               0.000216608642 Eh/α |
          | HOMO-LUMO GAP               2.646360113535 eV   |
           -------------------------------------------------

------------------------------------------------------------------------
 * finished run on 2025/01/14 at 21:03:24.392     
------------------------------------------------------------------------
 total:
 * wall-time:     0 d,  0 h,  0 min,  0.406 sec
 *  cpu-time:     0 d,  0 h,  0 min,  0.689 sec
 * ratio c/w:     1.696 speedup
 SCF:
 * wall-time:     0 d,  0 h,  0 min,  0.052 sec
 *  cpu-time:     0 d,  0 h,  0 min,  0.180 sec
 * ratio c/w:     3.446 speedup


-------------------------   --------------------
FINAL SINGLE POINT ENERGY       -44.128210955760
-------------------------   --------------------

                                *** OPTIMIZATION RUN DONE ***

Timings for individual modules:

Sum of individual times         ...      281.162 sec (=   4.686 min)
Geometry relaxation             ...       85.414 sec (=   1.424 min)  30.4 %
XTB module                      ...      195.748 sec (=   3.262 min)  69.6 %
                             ****ORCA TERMINATED NORMALLY****
TOTAL RUN TIME: 0 days 0 hours 18 minutes 28 seconds 177 msec
