
                                 *****************
                                 * O   R   C   A *
                                 *****************

                                            #,                                       
                                            ###                                      
                                            ####                                     
                                            #####                                    
                                            ######                                   
                                           ########,                                 
                                     ,,################,,,,,                         
                               ,,#################################,,                 
                          ,,##########################################,,             
                       ,#########################################, ''#####,          
                    ,#############################################,,   '####,        
                  ,##################################################,,,,####,       
                ,###########''''           ''''###############################       
              ,#####''   ,,,,##########,,,,          '''####'''          '####       
            ,##' ,,,,###########################,,,                        '##       
           ' ,,###''''                  '''############,,,                           
         ,,##''                                '''############,,,,        ,,,,,,###''
      ,#''                                            '''#######################'''  
     '                                                          ''''####''''         
             ,#######,   #######,   ,#######,      ##                                
            ,#'     '#,  ##    ##  ,#'     '#,    #''#        ######   ,####,        
            ##       ##  ##   ,#'  ##            #'  '#       #        #'  '#        
            ##       ##  #######   ##           ,######,      #####,   #    #        
            '#,     ,#'  ##    ##  '#,     ,#' ,#      #,         ##   #,  ,#        
             '#######'   ##     ##  '#######'  #'      '#     #####' # '####'        



                  #######################################################
                  #                        -***-                        #
                  #          Department of theory and spectroscopy      #
                  #    Directorship and core code : Frank Neese         #
                  #        Max Planck Institute fuer Kohlenforschung    #
                  #                Kaiser Wilhelm Platz 1               #
                  #                 D-45470 Muelheim/Ruhr               #
                  #                      Germany                        #
                  #                                                     #
                  #                  All rights reserved                #
                  #                        -***-                        #
                  #######################################################


                         Program Version 5.0.4 -  RELEASE  -


 With contributions from (in alphabetic order):
   Daniel Aravena         : Magnetic Suceptibility
   Michael Atanasov       : Ab Initio Ligand Field Theory (pilot matlab implementation)
   Alexander A. Auer      : GIAO ZORA, VPT2 properties, NMR spectrum
   Ute Becker             : Parallelization
   Giovanni Bistoni       : ED, misc. LED, open-shell LED, HFLD
   Martin Brehm           : Molecular dynamics
   Dmytro Bykov           : SCF Hessian
   Vijay G. Chilkuri      : MRCI spin determinant printing, contributions to CSF-ICE
   Dipayan Datta          : RHF DLPNO-CCSD density
   Achintya Kumar Dutta   : EOM-CC, STEOM-CC
   Dmitry Ganyushin       : Spin-Orbit,Spin-Spin,Magnetic field MRCI
   Miquel Garcia          : C-PCM and meta-GGA Hessian, CC/C-PCM, Gaussian charge scheme
   Yang Guo               : DLPNO-NEVPT2, F12-NEVPT2, CIM, IAO-localization
   Andreas Hansen         : Spin unrestricted coupled pair/coupled cluster methods
   Benjamin Helmich-Paris : MC-RPA, TRAH-SCF, COSX integrals
   Lee Huntington         : MR-EOM, pCC
   Robert Izsak           : Overlap fitted RIJCOSX, COSX-SCS-MP3, EOM
   Marcus Kettner         : VPT2
   Christian Kollmar      : KDIIS, OOCD, Brueckner-CCSD(T), CCSD density, CASPT2, CASPT2-K
   Simone Kossmann        : Meta GGA functionals, TD-DFT gradient, OOMP2, MP2 Hessian
   Martin Krupicka        : Initial AUTO-CI
   Lucas Lang             : DCDCAS
   Marvin Lechner         : AUTO-CI (C++ implementation), FIC-MRCC
   Dagmar Lenk            : GEPOL surface, SMD
   Dimitrios Liakos       : Extrapolation schemes; Compound Job, initial MDCI parallelization
   Dimitrios Manganas     : Further ROCIS development; embedding schemes
   Dimitrios Pantazis     : SARC Basis sets
   Anastasios Papadopoulos: AUTO-CI, single reference methods and gradients
   Taras Petrenko         : DFT Hessian,TD-DFT gradient, ASA, ECA, R-Raman, ABS, FL, XAS/XES, NRVS
   Peter Pinski           : DLPNO-MP2, DLPNO-MP2 Gradient
   Christoph Reimann      : Effective Core Potentials
   Marius Retegan         : Local ZFS, SOC
   Christoph Riplinger    : Optimizer, TS searches, QM/MM, DLPNO-CCSD(T), (RO)-DLPNO pert. Triples
   Tobias Risthaus        : Range-separated hybrids, TD-DFT gradient, RPA, STAB
   Michael Roemelt        : Original ROCIS implementation
   Masaaki Saitow         : Open-shell DLPNO-CCSD energy and density
   Barbara Sandhoefer     : DKH picture change effects
   Avijit Sen             : IP-ROCIS
   Kantharuban Sivalingam : CASSCF convergence, NEVPT2, FIC-MRCI
   Bernardo de Souza      : ESD, SOC TD-DFT
   Georgi Stoychev        : AutoAux, RI-MP2 NMR, DLPNO-MP2 response
   Willem Van den Heuvel  : Paramagnetic NMR
   Boris Wezisla          : Elementary symmetry handling
   Frank Wennmohs         : Technical directorship


 We gratefully acknowledge several colleagues who have allowed us to
 interface, adapt or use parts of their codes:
   Stefan Grimme, W. Hujo, H. Kruse, P. Pracht,  : VdW corrections, initial TS optimization,
                  C. Bannwarth, S. Ehlert          DFT functionals, gCP, sTDA/sTD-DF
   Ed Valeev, F. Pavosevic, A. Kumar             : LibInt (2-el integral package), F12 methods
   Garnet Chan, S. Sharma, J. Yang, R. Olivares  : DMRG
   Ulf Ekstrom                                   : XCFun DFT Library
   Mihaly Kallay                                 : mrcc  (arbitrary order and MRCC methods)
   Jiri Pittner, Ondrej Demel                    : Mk-CCSD
   Frank Weinhold                                : gennbo (NPA and NBO analysis)
   Christopher J. Cramer and Donald G. Truhlar   : smd solvation model
   Lars Goerigk                                  : TD-DFT with DH, B97 family of functionals
   V. Asgeirsson, H. Jonsson                     : NEB implementation
   FAccTs GmbH                                   : IRC, NEB, NEB-TS, DLPNO-Multilevel, CI-OPT
                                                   MM, QMMM, 2- and 3-layer-ONIOM, Crystal-QMMM,
                                                   LR-CPCM, SF, NACMEs, symmetry and pop. for TD-DFT,
                                                   nearIR, NL-DFT gradient (VV10), updates on ESD,
                                                   ML-optimized integration grids
   S Lehtola, MJT Oliveira, MAL Marques          : LibXC Library
   Liviu Ungur et al                             : ANISO software


 Your calculation uses the libint2 library for the computation of 2-el integrals
 For citations please refer to: http://libint.valeyev.net

 Your ORCA version has been built with support for libXC version: 5.1.0
 For citations please refer to: https://tddft.org/programs/libxc/

 This ORCA versions uses:
   CBLAS   interface :  Fast vector & matrix operations
   LAPACKE interface :  Fast linear algebra routines
   SCALAPACK package :  Parallel linear algebra routines
   Shared memory     :  Shared parallel matrices
   BLAS/LAPACK       :  OpenBLAS 0.3.15  USE64BITINT DYNAMIC_ARCH NO_AFFINITY SkylakeX SINGLE_THREADED
        Core in use  :  SkylakeX
   Copyright (c) 2011-2014, The OpenBLAS Project




***************************************
The coordinates will be read from file: mol.xyz
***************************************


Your calculation utilizes the atom-pairwise dispersion correction
with the Becke-Johnson damping scheme (D3BJ)
Cite in your paper:
S.Grimme, S.Ehrlich, L.Goerigk, J Comput Chem, (2011), 32, 1456–1465 
S.Grimme, J.Antony, S.Ehrlich and H.Krieg, J.Chem.Phys., 132, (2010), 154104 
   

Your calculation utilizes the semiempirical GFN2-xTB method
Please cite in your paper:
C. Bannwarth, Ehlert S., S. Grimme,  J. Chem. Theory Comput., 15, (2019), 1652.
   

================================================================================

----- Orbital basis set information -----
Your calculation utilizes the basis: def2-SVP
   F. Weigend and R. Ahlrichs, Phys. Chem. Chem. Phys. 7, 3297 (2005).

----- AuxJ basis set information -----
Your calculation utilizes the auxiliary basis: def2/J
   F. Weigend, Phys. Chem. Chem. Phys. 8, 1057 (2006).

================================================================================
                                        WARNINGS
                       Please study these warnings very carefully!
================================================================================


WARNING: Geometry Optimization
  ===> : Switching off AutoStart
         For restart on a previous wavefunction, please use MOREAD

WARNING: Found dipole moment calculation with XTB calculation
  ===> : Switching off dipole moment calculation


WARNING: TRAH-SCF for XTB is not implemented!
  ===> : Turning TRAH off!

================================================================================
                                       INPUT FILE
================================================================================
NAME = /home/jang/cal_tmp/10_orca/Gen_chromophore/Gen_molecular_pairs_cal/mol_4_4.xyz/input.inp
|  1> ! B3LYP D3BJ def2-SVP TightSCF XTB Opt PAL8
|  2> 
|  3> %geom
|  4>   MaxIter 3000
|  5> end
|  6> 
|  7> * xyzfile 0 1 mol.xyz
|  8> 
|  9> %pal nprocs 4 # any number (positive integer)
| 10> end
| 11> 
| 12>                          ****END OF INPUT****
================================================================================

                       *****************************
                       * Geometry Optimization Run *
                       *****************************

Geometry optimization settings:
Update method            Update   .... BFGS
Choice of coordinates    CoordSys .... Z-matrix Internals
Initial Hessian          InHess   .... Almoef's Model

Convergence Tolerances:
Energy Change            TolE     ....  5.0000e-06 Eh
Max. Gradient            TolMAXG  ....  3.0000e-04 Eh/bohr
RMS Gradient             TolRMSG  ....  1.0000e-04 Eh/bohr
Max. Displacement        TolMAXD  ....  4.0000e-03 bohr
RMS Displacement         TolRMSD  ....  2.0000e-03 bohr
Strict Convergence                ....  False
------------------------------------------------------------------------------
                        ORCA OPTIMIZATION COORDINATE SETUP
------------------------------------------------------------------------------

The optimization will be done in new redundant internal coordinates
Making redundant internal coordinates   ...  (new redundants) done
Evaluating the initial hessian          ...  (Almloef) done
Evaluating the coordinates              ...  done
Calculating the B-matrix                .... done
Calculating the G-matrix                .... done
Diagonalizing the G-matrix              .... done
Small eigenvalue found = 1.553e-03
Small eigenvalue found = 2.820e-03
Small eigenvalue found = 8.866e-03
Small eigenvalue found = 2.371e-02
Small eigenvalue found = 2.681e-02
The first mode is                       ....  150
The number of degrees of freedom        ....  126

    -----------------------------------------------------------------
                    Redundant Internal Coordinates


    -----------------------------------------------------------------
         Definition                    Initial Value    Approx d2E/dq
    -----------------------------------------------------------------
      1. B(C   1,O   0)                  1.2849         0.823387   
      2. B(C   2,C   1)                  1.4424         0.515393   
      3. B(C   3,C   2)                  1.5207         0.386613   
      4. B(N   4,C   3)                  1.3220         0.718419   
      5. B(C   5,N   4)                  1.3751         0.591050   
      6. B(C   6,C   5)                  1.4096         0.581431   
      7. B(C   7,C   6)                  1.3985         0.605619   
      8. B(C   8,C   7)                  1.3914         0.621495   
      9. B(C   9,C   8)                  1.3992         0.604003   
     10. B(C  10,C   5)                  1.3887         0.627744   
     11. B(C  10,C   9)                  1.4060         0.589182   
     12. B(S  11,C  10)                  1.7130         0.514179   
     13. B(S  11,C   3)                  1.7484         0.451512   
     14. B(C  12,C   2)                  1.4199         0.559798   
     15. B(C  13,C  12)                  1.3980         0.606654   
     16. B(C  14,C  13)                  1.4045         0.592457   
     17. B(C  15,C  14)                  1.3944         0.614694   
     18. B(C  16,C  15)                  1.3975         0.607735   
     19. B(C  17,C  16)                  1.4037         0.594110   
     20. B(C  18,C  17)                  1.3933         0.617280   
     21. B(C  19,C  18)                  1.3931         0.617758   
     22. B(C  20,C  19)                  1.4036         0.594309   
     23. B(C  21,C  20)                  1.3932         0.617397   
     24. B(C  22,C  21)                  1.3982         0.606258   
     25. B(C  23,C  22)                  1.4152         0.569485   
     26. B(C  23,C   1)                  1.4538         0.494301   
     27. B(C  24,C  23)                  1.4187         0.562295   
     28. B(C  24,C  13)                  1.4000         0.602352   
     29. B(C  25,C  24)                  1.4263         0.546765   
     30. B(C  25,C  20)                  1.4113         0.577771   
     31. B(C  25,C  16)                  1.4162         0.567433   
     32. B(H  26,C   6)                  1.0856         0.366003   
     33. B(H  27,C   7)                  1.0864         0.364831   
     34. B(H  28,C   8)                  1.0871         0.364009   
     35. B(H  29,C   9)                  1.0848         0.367101   
     36. B(H  30,C  12)                  1.0846         0.367306   
     37. B(H  31,C  14)                  1.0872         0.363849   
     38. B(H  32,C  15)                  1.0863         0.365023   
     39. B(H  33,C  17)                  1.0869         0.364255   
     40. B(H  34,C  18)                  1.0858         0.365644   
     41. B(H  35,C  19)                  1.0871         0.363934   
     42. B(H  36,C  21)                  1.0856         0.365954   
     43. B(H  37,C  22)                  1.0902         0.359800   
     44. B(C  39,H  34)                  6.8634         0.000000   
     45. B(C  39,C  38)                  1.4619         0.479735   
     46. B(N  40,H  34)                  5.8752         0.000000   
     47. B(N  40,C  18)                  6.8890         0.000000   
     48. B(N  40,C  39)                  1.1602         1.301459   
     49. B(H  41,C  38)                  1.0940         0.354795   
     50. B(H  42,C  38)                  1.0940         0.354795   
     51. B(H  43,C  38)                  1.0940         0.354795   
     52. A(C   2,C   1,C  23)          116.6813         0.403388   
     53. A(O   0,C   1,C  23)          120.1031         0.435681   
     54. A(O   0,C   1,C   2)          123.2156         0.438975   
     55. A(C   1,C   2,C   3)          122.7666         0.386380   
     56. A(C   3,C   2,C  12)          118.4546         0.391996   
     57. A(C   1,C   2,C  12)          118.7789         0.412368   
     58. A(N   4,C   3,S  11)          111.6850         0.441445   
     59. A(C   2,C   3,N   4)          127.4368         0.406959   
     60. A(C   2,C   3,S  11)          120.8782         0.397867   
     61. A(C   3,N   4,C   5)          112.8428         0.436142   
     62. A(C   6,C   5,C  10)          118.8469         0.430043   
     63. A(N   4,C   5,C   6)          125.9163         0.422657   
     64. A(N   4,C   5,C  10)          115.2368         0.428495   
     65. A(C   7,C   6,H  26)          121.4304         0.352479   
     66. A(C   5,C   6,H  26)          118.6441         0.350059   
     67. A(C   5,C   6,C   7)          119.9255         0.427284   
     68. A(C   8,C   7,H  27)          120.3145         0.353834   
     69. A(C   6,C   7,H  27)          119.4118         0.352287   
     70. A(C   6,C   7,C   8)          120.2737         0.432425   
     71. A(C   7,C   8,H  28)          119.7080         0.353699   
     72. A(C   7,C   8,C   9)          120.7748         0.432217   
     73. A(C   9,C   8,H  28)          119.5172         0.351994   
     74. A(C  10,C   9,H  29)          120.7670         0.351020   
     75. A(C   8,C   9,H  29)          120.9693         0.352498   
     76. A(C   8,C   9,C  10)          118.2637         0.428095   
     77. A(C   5,C  10,C   9)          121.9155         0.431067   
     78. A(C   9,C  10,S  11)          129.4026         0.438914   
     79. A(C   5,C  10,S  11)          108.6820         0.443971   
     80. A(C   3,S  11,C  10)           91.5534         0.441588   
     81. A(C   2,C  12,H  30)          120.0311         0.348037   
     82. A(C   2,C  12,C  13)          123.5018         0.424523   
     83. A(C  13,C  12,H  30)          116.4671         0.352793   
     84. A(C  12,C  13,C  14)          120.9148         0.428857   
     85. A(C  14,C  13,C  24)          119.9756         0.428310   
     86. A(C  12,C  13,C  24)          119.1096         0.430134   
     87. A(C  15,C  14,H  31)          118.8660         0.353014   
     88. A(C  13,C  14,H  31)          120.1032         0.350822   
     89. A(C  13,C  14,C  15)          121.0308         0.429871   
     90. A(C  16,C  15,H  32)          120.7100         0.352527   
     91. A(C  14,C  15,H  32)          118.9676         0.353207   
     92. A(C  14,C  15,C  16)          120.3224         0.431841   
     93. A(C  15,C  16,C  17)          121.0568         0.429209   
     94. A(C  17,C  16,C  25)          119.7812         0.423966   
     95. A(C  15,C  16,C  25)          119.1619         0.425689   
     96. A(C  18,C  17,H  33)          119.0256         0.353332   
     97. A(C  16,C  17,H  33)          120.3465         0.351053   
     98. A(C  16,C  17,C  18)          120.6279         0.430411   
     99. A(C  17,C  18,C  19)          119.8604         0.433440   
    100. A(H  34,C  18,N  40)           19.3066         0.091652   
    101. A(C  19,C  18,N  40)          117.6132         0.092453   
    102. A(C  17,C  18,N  40)          118.8332         0.092452   
    103. A(C  19,C  18,H  34)          119.9938         0.353606   
    104. A(C  17,C  18,H  34)          120.1459         0.353560   
    105. A(C  18,C  19,C  20)          120.6277         0.430496   
    106. A(C  20,C  19,H  35)          120.1133         0.351020   
    107. A(C  18,C  19,H  35)          119.2590         0.353325   
    108. A(C  19,C  20,C  21)          121.2254         0.430451   
    109. A(C  21,C  20,C  25)          118.8670         0.428277   
    110. A(C  19,C  20,C  25)          119.9075         0.425363   
    111. A(C  20,C  21,C  22)          120.2847         0.431993   
    112. A(C  22,C  21,H  36)          118.3869         0.352534   
    113. A(C  20,C  21,H  36)          121.3284         0.353622   
    114. A(C  23,C  22,H  37)          118.3415         0.347832   
    115. A(C  21,C  22,H  37)          118.3073         0.351524   
    116. A(C  21,C  22,C  23)          123.3513         0.425779   
    117. A(C  22,C  23,C  24)          115.7296         0.420089   
    118. A(C   1,C  23,C  24)          122.4004         0.409647   
    119. A(C   1,C  23,C  22)          121.8700         0.410571   
    120. A(C  23,C  24,C  25)          121.5417         0.417053   
    121. A(C  13,C  24,C  25)          118.9302         0.422202   
    122. A(C  13,C  24,C  23)          119.5280         0.424321   
    123. A(C  20,C  25,C  24)          120.2257         0.419075   
    124. A(C  16,C  25,C  24)          120.5790         0.417729   
    125. A(C  16,C  25,C  20)          119.1953         0.421858   
    126. A(C  39,H  34,N  40)            5.4885         0.089030   
    127. A(C  18,H  34,N  40)          157.1901         0.092653   
    128. A(C  18,H  34,C  39)          162.4079         0.090666   
    129. A(H  42,C  38,H  43)          108.0977         0.289488   
    130. A(H  41,C  38,H  43)          108.0976         0.289488   
    131. A(C  39,C  38,H  43)          110.8121         0.337190   
    132. A(H  41,C  38,H  42)          108.0977         0.289488   
    133. A(C  39,C  38,H  42)          110.8122         0.337190   
    134. A(C  39,C  38,H  41)          110.8121         0.337190   
    135. A(H  34,C  39,N  40)           28.9682         0.091547   
    136. A(H  34,C  39,C  38)          151.0318         0.091049   
    137. A(H  34,N  40,C  39)          145.5433         0.094583   
    138. A(C  18,N  40,C  39)          148.8997         0.093053   
    139. D(C  12,C   2,C   1,C  23)     -0.0041         0.018109   
    140. D(C  12,C   2,C   1,O   0)    179.9927         0.018109   
    141. D(C   3,C   2,C   1,C  23)    179.9970         0.018109   
    142. D(C   3,C   2,C   1,O   0)     -0.0062         0.018109   
    143. D(S  11,C   3,C   2,C   1)    179.9638         0.010321   
    144. D(S  11,C   3,C   2,C  12)     -0.0351         0.010321   
    145. D(N   4,C   3,C   2,C   1)     -0.0380         0.010321   
    146. D(N   4,C   3,C   2,C  12)    179.9631         0.010321   
    147. D(C   5,N   4,C   3,S  11)     -0.0047         0.038849   
    148. D(C   5,N   4,C   3,C   2)    179.9969         0.038849   
    149. D(C   6,C   5,N   4,C   3)   -179.9922         0.025465   
    150. D(C  10,C   5,N   4,C   3)      0.0075         0.025465   
    151. D(H  26,C   6,C   5,C  10)   -179.9958         0.023231   
    152. D(C   7,C   6,C   5,N   4)   -179.9975         0.023231   
    153. D(H  26,C   6,C   5,N   4)      0.0040         0.023231   
    154. D(C   7,C   6,C   5,C  10)      0.0027         0.023231   
    155. D(H  27,C   7,C   6,H  26)     -0.0016         0.025310   
    156. D(C   8,C   7,C   6,H  26)   -179.9984         0.025310   
    157. D(C   8,C   7,C   6,C   5)      0.0032         0.025310   
    158. D(H  27,C   7,C   6,C   5)    179.9999         0.025310   
    159. D(H  28,C   8,C   7,H  27)      0.0008         0.026736   
    160. D(H  28,C   8,C   7,C   6)    179.9976         0.026736   
    161. D(C   9,C   8,C   7,H  27)    179.9980         0.026736   
    162. D(C   9,C   8,C   7,C   6)     -0.0053         0.026736   
    163. D(H  29,C   9,C   8,C   7)   -179.9976         0.025168   
    164. D(H  29,C   9,C   8,H  28)     -0.0005         0.025168   
    165. D(C  10,C   9,C   8,H  28)    179.9986         0.025168   
    166. D(C  10,C   9,C   8,C   7)      0.0014         0.025168   
    167. D(S  11,C  10,C   5,N   4)     -0.0066         0.027310   
    168. D(C   9,C  10,C   5,C   6)     -0.0067         0.027310   
    169. D(C   9,C  10,C   5,N   4)    179.9935         0.027310   
    170. D(S  11,C  10,C   5,C   6)    179.9932         0.027310   
    171. D(S  11,C  10,C   9,H  29)      0.0039         0.023886   
    172. D(C   5,C  10,C   9,H  29)   -179.9963         0.023886   
    173. D(C   5,C  10,C   9,C   8)      0.0047         0.023886   
    174. D(S  11,C  10,C   9,C   8)   -179.9952         0.023886   
    175. D(C   3,S  11,C  10,C   9)   -179.9970         0.005430   
    176. D(C   3,S  11,C  10,C   5)      0.0032         0.005430   
    177. D(C  10,S  11,C   3,N   4)      0.0008         0.004493   
    178. D(C  10,S  11,C   3,C   2)    179.9993         0.004493   
    179. D(H  30,C  12,C   2,C   3)     -0.0065         0.021465   
    180. D(H  30,C  12,C   2,C   1)    179.9946         0.021465   
    181. D(C  13,C  12,C   2,C   3)    179.9982         0.021465   
    182. D(C  13,C  12,C   2,C   1)     -0.0007         0.021465   
    183. D(C  24,C  13,C  12,H  30)   -179.9906         0.025402   
    184. D(C  24,C  13,C  12,C   2)      0.0048         0.025402   
    185. D(C  14,C  13,C  12,H  30)      0.0071         0.025402   
    186. D(C  14,C  13,C  12,C   2)   -179.9975         0.025402   
    187. D(H  31,C  14,C  13,C  24)   -179.9990         0.024165   
    188. D(H  31,C  14,C  13,C  12)      0.0033         0.024165   
    189. D(C  15,C  14,C  13,C  24)      0.0000         0.024165   
    190. D(C  15,C  14,C  13,C  12)   -179.9977         0.024165   
    191. D(H  32,C  15,C  14,H  31)      0.0017         0.026119   
    192. D(H  32,C  15,C  14,C  13)   -179.9973         0.026119   
    193. D(C  16,C  15,C  14,H  31)    179.9972         0.026119   
    194. D(C  16,C  15,C  14,C  13)     -0.0019         0.026119   
    195. D(C  25,C  16,C  15,H  32)    179.9986         0.025498   
    196. D(C  25,C  16,C  15,C  14)      0.0032         0.025498   
    197. D(C  17,C  16,C  15,H  32)     -0.0031         0.025498   
    198. D(C  17,C  16,C  15,C  14)   -179.9984         0.025498   
    199. D(H  33,C  17,C  16,C  15)     -0.0009         0.024307   
    200. D(C  18,C  17,C  16,C  25)      0.0035         0.024307   
    201. D(C  18,C  17,C  16,C  15)   -179.9948         0.024307   
    202. D(H  33,C  17,C  16,C  25)    179.9974         0.024307   
    203. D(N  40,C  18,C  17,H  33)    -22.1569         0.028635   
    204. D(H  34,C  18,C  17,H  33)      0.0068         0.028635   
    205. D(H  34,C  18,C  17,C  16)   -179.9992         0.028635   
    206. D(C  19,C  18,C  17,H  33)   -179.9977         0.028635   
    207. D(C  19,C  18,C  17,C  16)     -0.0037         0.028635   
    208. D(N  40,C  18,C  17,C  16)    157.8371         0.028635   
    209. D(H  35,C  19,C  18,N  40)     21.8973         0.028682   
    210. D(H  35,C  19,C  18,H  34)     -0.0014         0.028682   
    211. D(H  35,C  19,C  18,C  17)   -179.9969         0.028682   
    212. D(C  20,C  19,C  18,N  40)   -158.1045         0.028682   
    213. D(C  20,C  19,C  18,H  34)    179.9968         0.028682   
    214. D(C  20,C  19,C  18,C  17)      0.0013         0.028682   
    215. D(C  25,C  20,C  19,H  35)    179.9995         0.024325   
    216. D(C  25,C  20,C  19,C  18)      0.0013         0.024325   
    217. D(C  21,C  20,C  19,H  35)     -0.0008         0.024325   
    218. D(C  21,C  20,C  19,C  18)   -179.9989         0.024325   
    219. D(H  36,C  21,C  20,C  25)    179.9982         0.026363   
    220. D(H  36,C  21,C  20,C  19)     -0.0015         0.026363   
    221. D(C  22,C  21,C  20,C  25)     -0.0016         0.026363   
    222. D(C  22,C  21,C  20,C  19)    179.9987         0.026363   
    223. D(H  37,C  22,C  21,H  36)     -0.0007         0.025367   
    224. D(H  37,C  22,C  21,C  20)    179.9991         0.025367   
    225. D(C  23,C  22,C  21,H  36)   -179.9972         0.025367   
    226. D(C  23,C  22,C  21,C  20)      0.0026         0.025367   
    227. D(C  24,C  23,C  22,H  37)   -179.9974         0.022245   
    228. D(C  24,C  23,C  22,C  21)     -0.0009         0.022245   
    229. D(C   1,C  23,C  22,H  37)      0.0040         0.022245   
    230. D(C   1,C  23,C  22,C  21)   -179.9995         0.022245   
    231. D(C  24,C  23,C   1,C   2)      0.0052         0.016639   
    232. D(C  24,C  23,C   1,O   0)   -179.9918         0.016639   
    233. D(C  22,C  23,C   1,C   2)   -179.9964         0.016639   
    234. D(C  22,C  23,C   1,O   0)      0.0067         0.016639   
    235. D(C  25,C  24,C  23,C  22)     -0.0017         0.021665   
    236. D(C  25,C  24,C  23,C   1)    179.9969         0.021665   
    237. D(C  13,C  24,C  23,C  22)   -179.9998         0.021665   
    238. D(C  13,C  24,C  23,C   1)     -0.0013         0.021665   
    239. D(C  25,C  24,C  13,C  14)      0.0004         0.025023   
    240. D(C  25,C  24,C  13,C  12)    179.9981         0.025023   
    241. D(C  23,C  24,C  13,C  14)    179.9985         0.025023   
    242. D(C  23,C  24,C  13,C  12)     -0.0037         0.025023   
    243. D(C  20,C  25,C  24,C  23)      0.0026         0.020443   
    244. D(C  20,C  25,C  24,C  13)   -179.9992         0.020443   
    245. D(C  16,C  25,C  24,C  23)   -179.9971         0.020443   
    246. D(C  16,C  25,C  24,C  13)      0.0011         0.020443   
    247. D(C  24,C  25,C  20,C  21)     -0.0009         0.022926   
    248. D(C  24,C  25,C  20,C  19)    179.9988         0.022926   
    249. D(C  16,C  25,C  20,C  21)    179.9988         0.022926   
    250. D(C  16,C  25,C  20,C  19)     -0.0015         0.022926   
    251. D(C  24,C  25,C  16,C  17)    179.9988         0.022079   
    252. D(C  24,C  25,C  16,C  15)     -0.0029         0.022079   
    253. D(C  20,C  25,C  16,C  17)     -0.0009         0.022079   
    254. D(C  20,C  25,C  16,C  15)    179.9975         0.022079   
    255. D(N  40,H  34,C  18,C  19)     88.3406         0.137519   
    256. D(N  40,H  34,C  18,C  17)    -91.6639         0.137519   
    257. D(C  39,H  34,C  18,N  40)     -4.9711         0.137519   
    258. D(C  39,H  34,C  18,C  19)     83.3695         0.137519   
    259. D(C  39,H  34,C  18,C  17)    -96.6350         0.137519   
    260. D(H  34,C  39,C  38,H  43)    124.9320         0.016971   
    261. D(H  34,C  39,C  38,H  42)      4.9320         0.016971   
    262. D(H  34,C  39,C  38,H  41)   -115.0681         0.016971   
    263. D(N  40,C  39,H  34,C  18)     20.5625         0.001500   
    264. D(C  38,C  39,H  34,N  40)    180.0000         0.001500   
    265. D(C  38,C  39,H  34,C  18)   -159.4375         0.001500   
    266. D(C  18,N  40,C  39,H  34)     -1.8563         0.168393   
    267. D(H  34,N  40,C  38,H  43)    124.9320         0.001503   
    268. D(H  34,N  40,C  38,H  42)      4.9320         0.001503   
    269. D(H  34,N  40,C  38,H  41)   -115.0681         0.001503   
    270. D(C  18,N  40,C  38,H  43)    123.0757         0.001503   
    271. D(C  18,N  40,C  38,H  42)      3.0757         0.001503   
    272. D(C  18,N  40,C  38,H  41)   -116.9244         0.001503   
    273. D(C  39,N  40,H  34,C  18)   -164.1080         0.001500   
    274. D(C  39,N  40,C  18,H  34)     17.4534         0.001500   
    275. D(C  39,N  40,C  18,C  19)    -84.8588         0.001500   
    276. D(C  39,N  40,C  18,C  17)    116.8047         0.001500   
    -----------------------------------------------------------------

Number of atoms                         .... 44
Number of degrees of freedom            .... 276

         *************************************************************
         *                GEOMETRY OPTIMIZATION CYCLE   1            *
         *************************************************************
---------------------------------
CARTESIAN COORDINATES (ANGSTROEM)
---------------------------------
  O     0.728670    0.858955   -2.365735
  C     0.157515    0.470896   -1.282184
  C     0.885928   -0.004226   -0.131449
  C     2.403773   -0.089624   -0.095893
  N     3.249834    0.237849   -1.057457
  C     4.563620    0.040190   -0.702720
  C     5.686956    0.297452   -1.514417
  C     6.973150    0.049393   -1.024587
  C     7.149483   -0.450845    0.261795
  C     6.048901   -0.713503    1.084917
  C     4.762499   -0.458781    0.577910
  S     3.236626   -0.672718    1.326545
  C     0.158373   -0.410109    1.018354
  C    -1.236797   -0.375601    1.100647
  C    -1.901340   -0.790485    2.266315
  C    -3.292802   -0.757125    2.351013
  C    -4.054916   -0.306971    1.269508
  C    -5.456380   -0.266899    1.338004
  C    -6.207432    0.183450    0.254317
  C    -5.565124    0.598831   -0.909977
  C    -4.164980    0.568625   -1.003934
  C    -3.509750    0.981122   -2.162229
  C    -2.113941    0.942814   -2.234414
  C    -1.291847    0.497215   -1.172112
  C    -1.972852    0.080392    0.000566
  C    -3.396047    0.113956    0.088671
  H     5.527696    0.687525   -2.514892
  H     7.833068    0.250687   -1.657350
  H     8.153395   -0.640336    0.633219
  H     6.182720   -1.103463    2.088274
  H     0.685534   -0.770814    1.894917
  H    -1.331790   -1.144955    3.121842
  H    -3.772055   -1.085815    3.268802
  H    -5.971488   -0.587788    2.239667
  H    -7.291175    0.211181    0.315825
  H    -6.160694    0.948438   -1.749557
  H    -4.061650    1.337997   -3.026287
  H    -1.634680    1.273089   -3.156273
  C   -15.336704   -1.089199   -0.299074
  C   -13.922351   -1.458143   -0.272916
  N   -12.799852   -1.750956   -0.252156
  H   -15.869632   -1.531888    0.547647
  H   -15.456148   -0.003021   -0.245486
  H   -15.812545   -1.438388   -1.220250

----------------------------
CARTESIAN COORDINATES (A.U.)
----------------------------
  NO LB    ZA    FRAG    MASS        X           Y           Z
   0 O   8.0000    0    15.999    1.376986    1.623190   -4.470591
   1 C   6.0000    0    12.011    0.297660    0.889865   -2.422976
   2 C   6.0000    0    12.011    1.674161   -0.007985   -0.248403
   3 C   6.0000    0    12.011    4.542473   -0.169364   -0.181212
   4 N   7.0000    0    14.007    6.141297    0.449470   -1.998304
   5 C   6.0000    0    12.011    8.623992    0.075948   -1.327949
   6 C   6.0000    0    12.011   10.746789    0.562102   -2.861834
   7 C   6.0000    0    12.011   13.177344    0.093339   -1.936189
   8 C   6.0000    0    12.011   13.510565   -0.851973    0.494721
   9 C   6.0000    0    12.011   11.430767   -1.348326    2.050195
  10 C   6.0000    0    12.011    8.999820   -0.866970    1.092092
  11 S  16.0000    0    32.060    6.116338   -1.271252    2.506807
  12 C   6.0000    0    12.011    0.299282   -0.774993    1.924409
  13 C   6.0000    0    12.011   -2.337208   -0.709783    2.079921
  14 C   6.0000    0    12.011   -3.593011   -1.493800    4.282715
  15 C   6.0000    0    12.011   -6.222495   -1.430760    4.442771
  16 C   6.0000    0    12.011   -7.662681   -0.580092    2.399023
  17 C   6.0000    0    12.011  -10.311064   -0.504367    2.528461
  18 C   6.0000    0    12.011  -11.730347    0.346670    0.480590
  19 C   6.0000    0    12.011  -10.516560    1.131627   -1.719607
  20 C   6.0000    0    12.011   -7.870672    1.074545   -1.897160
  21 C   6.0000    0    12.011   -6.632466    1.854051   -4.086020
  22 C   6.0000    0    12.011   -3.994770    1.781660   -4.222431
  23 C   6.0000    0    12.011   -2.441238    0.939600   -2.214971
  24 C   6.0000    0    12.011   -3.728151    0.151919    0.001070
  25 C   6.0000    0    12.011   -6.417599    0.215346    0.167565
  26 H   1.0000    0     1.008   10.445831    1.299234   -4.752457
  27 H   1.0000    0     1.008   14.802354    0.473730   -3.131939
  28 H   1.0000    0     1.008   15.407684   -1.210059    1.196611
  29 H   1.0000    0     1.008   11.683648   -2.085244    3.946265
  30 H   1.0000    0     1.008    1.295471   -1.456628    3.580875
  31 H   1.0000    0     1.008   -2.516719   -2.163650    5.899427
  32 H   1.0000    0     1.008   -7.128150   -2.051893    6.177140
  33 H   1.0000    0     1.008  -11.284477   -1.110759    4.232357
  34 H   1.0000    0     1.008  -13.778324    0.399075    0.596823
  35 H   1.0000    0     1.008  -11.642025    1.792288   -3.306183
  36 H   1.0000    0     1.008   -7.675406    2.528448   -5.718853
  37 H   1.0000    0     1.008   -3.089098    2.405790   -5.964491
  38 C   6.0000    0    12.011  -28.982170   -2.058289   -0.565168
  39 C   6.0000    0    12.011  -26.309430   -2.755491   -0.515737
  40 N   7.0000    0    14.007  -24.188214   -3.308826   -0.476505
  41 H   1.0000    0     1.008  -29.989258   -2.894848    1.034904
  42 H   1.0000    0     1.008  -29.207886   -0.005708   -0.463901
  43 H   1.0000    0     1.008  -29.881380   -2.718159   -2.305939

      -----------------------------------------------------------      
     |                   =====================                   |     
     |                           x T B                           |     
     |                   =====================                   |     
     |                         S. Grimme                         |     
     |          Mulliken Center for Theoretical Chemistry        |     
     |                    University of Bonn                     |     
      -----------------------------------------------------------      

   * xtb version 6.6.1 (8d0f1dd) compiled by 'stahn@M-Bot' on 2023-08-01

   xtb is free software: you can redistribute it and/or modify it under
   the terms of the GNU Lesser General Public License as published by
   the Free Software Foundation, either version 3 of the License, or
   (at your option) any later version.
   
   xtb is distributed in the hope that it will be useful,
   but WITHOUT ANY WARRANTY; without even the implied warranty of
   MERCHANTABILITY or FITNESS FOR A PARTICULAR PURPOSE.  See the
   GNU Lesser General Public License for more details.
   
   Cite this work as:
   * C. Bannwarth, E. Caldeweyher, S. Ehlert, A. Hansen, P. Pracht,
     J. Seibert, S. Spicher, S. Grimme, WIREs Comput. Mol. Sci., 2020, 11,
     e01493. DOI: 10.1002/wcms.1493
   
   for GFN2-xTB:
   * C. Bannwarth, S. Ehlert and S. Grimme., J. Chem. Theory Comput., 2019,
     15, 1652-1671. DOI: 10.1021/acs.jctc.8b01176
   for GFN1-xTB:
   * S. Grimme, C. Bannwarth, P. Shushkov, J. Chem. Theory Comput., 2017,
     13, 1989-2009. DOI: 10.1021/acs.jctc.7b00118
   for GFN0-xTB:
   * P. Pracht, E. Caldeweyher, S. Ehlert, S. Grimme, ChemRxiv, 2019, preprint.
     DOI: 10.26434/chemrxiv.8326202.v1
   for GFN-FF:
   * S. Spicher and S. Grimme, Angew. Chem. Int. Ed., 2020, 59, 15665-15673.
     DOI: 10.1002/anie.202004239
   
   for ALPB and GBSA implicit solvation:
   * S. Ehlert, M. Stahn, S. Spicher, S. Grimme, J. Chem. Theory Comput.,
     2021, 17, 4250-4261. DOI: 10.1021/acs.jctc.1c00471
   
   for DFT-D4:
   * E. Caldeweyher, C. Bannwarth and S. Grimme, J. Chem. Phys., 2017,
     147, 034112. DOI: 10.1063/1.4993215
   * E. Caldeweyher, S. Ehlert, A. Hansen, H. Neugebauer, S. Spicher,
     C. Bannwarth and S. Grimme, J. Chem. Phys., 2019, 150, 154122.
     DOI: 10.1063/1.5090222
   * E. Caldeweyher, J.-M. Mewes, S. Ehlert and S. Grimme, Phys. Chem. Chem. Phys.
     2020, 22, 8499-8512. DOI: 10.1039/D0CP00502A
   
   for sTDA-xTB:
   * S. Grimme and C. Bannwarth, J. Chem. Phys., 2016, 145, 054103.
     DOI: 10.1063/1.4959605
   
   in the mass-spec context:
   * V. Asgeirsson, C. Bauer and S. Grimme, Chem. Sci., 2017, 8, 4879.
     DOI: 10.1039/c7sc00601b
   * J. Koopman and S. Grimme, ACS Omega 2019, 4, 12, 15120-15133.
     DOI: 10.1021/acsomega.9b02011
   
   for metadynamics refer to:
   * S. Grimme, J. Chem. Theory Comput., 2019, 155, 2847-2862
     DOI: 10.1021/acs.jctc.9b00143
   
   for SPH calculations refer to:
   * S. Spicher and S. Grimme, J. Chem. Theory Comput., 2021, 17, 1701-1714
     DOI: 10.1021/acs.jctc.0c01306
   
   with help from (in alphabetical order)
   P. Atkinson, C. Bannwarth, F. Bohle, G. Brandenburg, E. Caldeweyher
   M. Checinski, S. Dohm, S. Ehlert, S. Ehrlich, I. Gerasimov, C. Hölzer
   A. Katbashev, J. Koopman, C. Lavigne, S. Lehtola, F. März, M. Müller,
   F. Musil, H. Neugebauer, J. Pisarek, C. Plett, P. Pracht, F. Pultar,
   J. Seibert, P. Shushkov, S. Spicher, M. Stahn, M. Steiner, T. Strunk,
   J. Stückrath, T. Rose, and J. Unsleber
   
 * started run on 2025/01/14 at 22:19:03.511     

           -------------------------------------------------
          |                Calculation Setup                |
           -------------------------------------------------

          program call               : /home/jang/cal_tmp/10_orca/orca_5_0_4_linux_x86-64_shared_openmpi411/otool_xtb /home/jang/cal_tmp/10_orca/Gen_chromophore/Gen_molecular_pairs_cal/mol_4_4.xyz/input_XTB.xyz --grad -c 0 -u 0 -P 4 --namespace /home/jang/cal_tmp/10_orca/Gen_chromophore/Gen_molecular_pairs_cal/mol_4_4.xyz/input --input /home/jang/cal_tmp/10_orca/Gen_chromophore/Gen_molecular_pairs_cal/mol_4_4.xyz/input_XTB.input.tmp --acc 1.000000
          hostname                   : node02
          calculation namespace      : /home/jang/cal_tmp/10_orca/Gen_chromophore/Gen_molecular_pairs_cal/mol_4_4.xyz/input
          coordinate file            : /home/jang/cal_tmp/10_orca/Gen_chromophore/Gen_molecular_pairs_cal/mol_4_4.xyz/input_XTB.xyz
          omp threads                :                     4

   ID    Z sym.   atoms
    1    8 O      1
    2    6 C      2-4, 6-11, 13-26, 39, 40
    3    7 N      5, 41
    4   16 S      12
    5    1 H      27-38, 42-44

molecular fragmentation (1/2 indicates fragments):
11111111111111111111111111111111111111222222
# atoms in fragment 1/2:    38     6
 fragment masses (1/2) :      350.41       41.05
CMA distance (Bohr)    :  27.260
constraining FC (au)   :  0.0500

           -------------------------------------------------
          |                 G F N 2 - x T B                 |
           -------------------------------------------------

        Reference                      10.1021/acs.jctc.8b01176
      * Hamiltonian:
        H0-scaling (s, p, d)           1.850000    2.230000    2.230000
        zeta-weighting                 0.500000
      * Dispersion:
        s8                             2.700000
        a1                             0.520000
        a2                             5.000000
        s9                             5.000000
      * Repulsion:
        kExp                           1.500000    1.000000
        rExp                           1.000000
      * Coulomb:
        alpha                          2.000000
        third order                    shell-resolved
        anisotropic                    true
        a3                             3.000000
        a5                             4.000000
        cn-shift                       1.200000
        cn-exp                         4.000000
        max-rad                        5.000000

q/qsh data taken from xtbrestart
CAMM data taken from xtbrestart

          ...................................................
          :                      SETUP                      :
          :.................................................:
          :  # basis functions                 137          :
          :  # atomic orbitals                 136          :
          :  # shells                           74          :
          :  # electrons                       137          :
          :  max. iterations                   250          :
          :  Hamiltonian                  GFN2-xTB          :
          :  restarted?                       true          :
          :  GBSA solvation                  false          :
          :  PC potential                    false          :
          :  electronic temp.          300.0000000     K    :
          :  accuracy                    1.0000000          :
          :  -> integral cutoff          0.2500000E+02      :
          :  -> integral neglect         0.1000000E-07      :
          :  -> SCF convergence          0.1000000E-05 Eh   :
          :  -> wf. convergence          0.1000000E-03 e    :
          :  Broyden damping             0.4000000          :
          ...................................................

 iter      E             dE          RMSdq      gap      omega  full diag
   1    -75.4812069 -0.754812E+02  0.855E+00    1.82       0.0  T
   2    -75.5028753 -0.216684E-01  0.504E+00    1.68       1.0  T
   3    -75.4475357  0.553397E-01  0.126E+00    1.82       1.0  T
   4    -75.5110310 -0.634953E-01  0.405E-01    1.68       1.0  T
   5    -75.5122569 -0.122586E-02  0.195E-01    1.70       1.0  T
   6    -75.5132717 -0.101485E-02  0.811E-02    1.71       1.0  T
   7    -75.5134127 -0.141033E-03  0.413E-02    1.70       1.0  T
   8    -75.5134602 -0.474116E-04  0.228E-02    1.70       1.0  T
   9    -75.5134731 -0.129650E-04  0.102E-02    1.70       1.5  T
  10    -75.5134759 -0.279850E-05  0.429E-03    1.70       3.5  T
  11    -75.5134762 -0.314524E-06  0.216E-03    1.70       7.0  T
  12    -75.5134762 -0.147184E-07  0.999E-04    1.70      15.1  T
  13    -75.5134763 -0.248796E-07  0.407E-04    1.70      37.0  T

   *** convergence criteria satisfied after 13 iterations ***

         #    Occupation            Energy/Eh            Energy/eV
      -------------------------------------------------------------
         1        2.0000           -0.7314246             -19.9031
       ...           ...                  ...                  ...
        63        2.0000           -0.4171151             -11.3503
        64        2.0000           -0.4137075             -11.2576
        65        2.0000           -0.3880408             -10.5591
        66        2.0000           -0.3848181             -10.4714
        67        2.0000           -0.3832523             -10.4288
        68        1.9998           -0.3721580             -10.1269
        69        1.0002           -0.3557979              -9.6818 (HOMO)
        70                         -0.2931415              -7.9768 (LUMO)
        71                         -0.2713164              -7.3829
        72                         -0.2465289              -6.7084
        73                         -0.2434260              -6.6240
        74                         -0.2323596              -6.3228
       ...                                ...                  ...
       136                          1.0377558              28.2388
      -------------------------------------------------------------
                  HL-Gap            0.0626563 Eh            1.7050 eV
             Fermi-level           -0.3442238 Eh           -9.3668 eV

 SCC (total)                   0 d,  0 h,  0 min,  0.121 sec
 SCC setup                      ...        0 min,  0.001 sec (  0.583%)
 Dispersion                     ...        0 min,  0.002 sec (  1.444%)
 classical contributions        ...        0 min,  0.000 sec (  0.129%)
 integral evaluation            ...        0 min,  0.017 sec ( 14.034%)
 iterations                     ...        0 min,  0.085 sec ( 70.618%)
 molecular gradient             ...        0 min,  0.015 sec ( 12.539%)
 printout                       ...        0 min,  0.001 sec (  0.559%)

         :::::::::::::::::::::::::::::::::::::::::::::::::::::
         ::                     SUMMARY                     ::
         :::::::::::::::::::::::::::::::::::::::::::::::::::::
         :: total energy             -74.278961026002 Eh    ::
         :: gradient norm              0.162560276341 Eh/a0 ::
         :: HOMO-LUMO gap              1.704965993273 eV    ::
         ::.................................................::
         :: SCC energy               -75.513476268446 Eh    ::
         :: -> isotropic ES            0.050879756862 Eh    ::
         :: -> anisotropic ES          0.005830488599 Eh    ::
         :: -> anisotropic XC          0.054632109858 Eh    ::
         :: -> dispersion             -0.053602039927 Eh    ::
         :: repulsion energy           1.235122210777 Eh    ::
         :: add. restraining           0.000000000000 Eh    ::
         :: total charge              -0.000000000000 e     ::
         :::::::::::::::::::::::::::::::::::::::::::::::::::::


Property printout bound to 'properties.out'

           -------------------------------------------------
          | TOTAL ENERGY              -74.278961026002 Eh   |
          | GRADIENT NORM               0.162560276341 Eh/α |
          | HOMO-LUMO GAP               1.704965993273 eV   |
           -------------------------------------------------

------------------------------------------------------------------------
 * finished run on 2025/01/14 at 22:19:03.725     
------------------------------------------------------------------------
 total:
 * wall-time:     0 d,  0 h,  0 min,  0.212 sec
 *  cpu-time:     0 d,  0 h,  0 min,  0.739 sec
 * ratio c/w:     3.493 speedup
 SCF:
 * wall-time:     0 d,  0 h,  0 min,  0.121 sec
 *  cpu-time:     0 d,  0 h,  0 min,  0.480 sec
 * ratio c/w:     3.964 speedup


-------------------------   --------------------
FINAL SINGLE POINT ENERGY       -74.278961026000
-------------------------   --------------------

------------------------------------------------------------------------------
                         ORCA GEOMETRY RELAXATION STEP
------------------------------------------------------------------------------

Reading the OPT-File                    .... done
Getting information on internals        .... done
Copying old internal coords+grads       .... done
Making the new internal coordinates     .... (new redundants).... done
Validating the new internal coordinates .... (new redundants).... done
Calculating the B-matrix                .... done
Calculating the G,G- and P matrices     .... done
Transforming gradient to internals      .... done
Projecting the internal gradient        .... done
Number of atoms                         ....  44
Number of internal coordinates          .... 276
Current Energy                          ....   -74.278961026 Eh
Current gradient norm                   ....     0.162560276 Eh/bohr
Maximum allowed component of the step   ....  0.300
Current trust radius                    ....  0.300
Evaluating the initial hessian          ....  (Almloef) done
Projecting the Hessian                  .... done
Forming the augmented Hessian           .... done
Diagonalizing the augmented Hessian     .... done
Last element of RFO vector              ....  0.972701506
Lowest eigenvalues of augmented Hessian:
 -0.031577278  0.000005537  0.001501031  0.004448965  0.008765057
Length of the computed step             ....  0.238572536
The final length of the internal step   ....  0.238572536
Converting the step to cartesian space:
 Initial RMS(Int)=    0.0143603792
Transforming coordinates:
 Iter   0:  RMS(Cart)=    0.0997752332 RMS(Int)=    1.5594093519
 Iter   1:  RMS(Cart)=    0.0012164381 RMS(Int)=    1.1959727446
 Iter   2:  RMS(Cart)=    0.0000362079 RMS(Int)=    0.3782032582
 Iter   3:  RMS(Cart)=    0.0000011946 RMS(Int)=    0.0000002908
 Iter   4:  RMS(Cart)=    0.0000000424 RMS(Int)=    0.0000000104
done
Storing new coordinates                 .... done

                                .--------------------.
          ----------------------|Geometry convergence|-------------------------
          Item                value                   Tolerance       Converged
          ---------------------------------------------------------------------
          RMS gradient        0.0082718897            0.0001000000      NO
          MAX gradient        0.0609039567            0.0003000000      NO
          RMS step            0.0143603792            0.0020000000      NO
          MAX step            0.1270658518            0.0040000000      NO
          ........................................................
          Max(Bonds)      0.0672      Max(Angles)    2.51
          Max(Dihed)        0.12      Max(Improp)    0.00
          ---------------------------------------------------------------------

The optimization has not yet converged - more geometry cycles are needed


    ---------------------------------------------------------------------------
                         Redundant Internal Coordinates
                            (Angstroem and degrees)

        Definition                    Value    dE/dq     Step     New-Value
    ----------------------------------------------------------------------------
     1. B(C   1,O   0)                1.2849  0.060904 -0.0377    1.2472   
     2. B(C   2,C   1)                1.4424 -0.005214  0.0043    1.4467   
     3. B(C   3,C   2)                1.5207  0.053138 -0.0672    1.4534   
     4. B(N   4,C   3)                1.3220  0.037086 -0.0274    1.2946   
     5. B(C   5,N   4)                1.3751  0.021821 -0.0189    1.3562   
     6. B(C   6,C   5)                1.4096  0.014466 -0.0122    1.3974   
     7. B(C   7,C   6)                1.3985  0.020893 -0.0176    1.3808   
     8. B(C   8,C   7)                1.3914 -0.003725  0.0025    1.3939   
     9. B(C   9,C   8)                1.3992  0.018366 -0.0155    1.3837   
    10. B(C  10,C   5)                1.3887 -0.018848  0.0167    1.4055   
    11. B(C  10,C   9)                1.4060  0.019118 -0.0160    1.3900   
    12. B(S  11,C  10)                1.7130 -0.005723  0.0070    1.7200   
    13. B(S  11,C   3)                1.7484 -0.012013  0.0122    1.7606   
    14. B(C  12,C   2)                1.4199  0.040277 -0.0366    1.3833   
    15. B(C  13,C  12)                1.3980 -0.008566  0.0072    1.4052   
    16. B(C  14,C  13)                1.4045 -0.004316  0.0035    1.4079   
    17. B(C  15,C  14)                1.3944  0.021641 -0.0182    1.3763   
    18. B(C  16,C  15)                1.3975 -0.017045  0.0138    1.4114   
    19. B(C  17,C  16)                1.4037  0.001172 -0.0011    1.4026   
    20. B(C  18,C  17)                1.3933  0.005609 -0.0051    1.3882   
    21. B(C  19,C  18)                1.3931  0.009397 -0.0081    1.3850   
    22. B(C  20,C  19)                1.4036 -0.002408  0.0021    1.4058   
    23. B(C  21,C  20)                1.3932 -0.015566  0.0129    1.4061   
    24. B(C  22,C  21)                1.3982  0.022202 -0.0188    1.3794   
    25. B(C  23,C  22)                1.4152  0.012029 -0.0112    1.4040   
    26. B(C  23,C   1)                1.4538 -0.000466  0.0004    1.4542   
    27. B(C  24,C  23)                1.4187  0.008639 -0.0073    1.4114   
    28. B(C  24,C  13)                1.4000 -0.016816  0.0149    1.4149   
    29. B(C  25,C  24)                1.4263  0.014502 -0.0124    1.4139   
    30. B(C  25,C  20)                1.4113 -0.002356  0.0032    1.4145   
    31. B(C  25,C  16)                1.4162  0.000749  0.0000    1.4162   
    32. B(H  26,C   6)                1.0856  0.005008 -0.0067    1.0789   
    33. B(H  27,C   7)                1.0864  0.005251 -0.0070    1.0794   
    34. B(H  28,C   8)                1.0871  0.005071 -0.0068    1.0803   
    35. B(H  29,C   9)                1.0848  0.004563 -0.0061    1.0787   
    36. B(H  30,C  12)                1.0846  0.001815 -0.0024    1.0822   
    37. B(H  31,C  14)                1.0872  0.004692 -0.0063    1.0809   
    38. B(H  32,C  15)                1.0863  0.004408 -0.0059    1.0804   
    39. B(H  33,C  17)                1.0869  0.004699 -0.0063    1.0806   
    40. B(H  34,C  18)                1.0858  0.007609 -0.0061    1.0797   
    41. B(H  35,C  19)                1.0871  0.004847 -0.0065    1.0806   
    42. B(H  36,C  21)                1.0856  0.004397 -0.0059    1.0798   
    43. B(H  37,C  22)                1.0902  0.005963 -0.0081    1.0822   
    44. B(C  39,H  34)                6.8634  0.013102 -0.0082    6.8552   
    45. B(C  39,C  38)                1.4619  0.021143 -0.0219    1.4400   
    46. B(N  40,H  34)                5.8752 -0.009896  0.0057    5.8809   
    47. B(N  40,C  18)                6.8890 -0.003013  0.0002    6.8893   
    48. B(N  40,C  39)                1.1602  0.032435 -0.0173    1.1429   
    49. B(H  41,C  38)                1.0940  0.002961 -0.0041    1.0900   
    50. B(H  42,C  38)                1.0940  0.002945 -0.0040    1.0900   
    51. B(H  43,C  38)                1.0940  0.002967 -0.0041    1.0900   
    52. A(C   2,C   1,C  23)          116.68 -0.000909    0.03    116.71   
    53. A(O   0,C   1,C  23)          120.10  0.000497   -0.02    120.08   
    54. A(O   0,C   1,C   2)          123.22  0.000412   -0.01    123.21   
    55. A(C   1,C   2,C   3)          122.77  0.008843   -1.10    121.67   
    56. A(C   3,C   2,C  12)          118.45  0.002264   -0.19    118.26   
    57. A(C   1,C   2,C  12)          118.78 -0.011107    1.29    120.07   
    58. A(N   4,C   3,S  11)          111.68 -0.022427    2.51    114.19   
    59. A(C   2,C   3,N   4)          127.44  0.014802   -1.71    125.72   
    60. A(C   2,C   3,S  11)          120.88  0.007625   -0.79    120.08   
    61. A(C   3,N   4,C   5)          112.84  0.002833   -0.67    112.17   
    62. A(C   6,C   5,C  10)          118.85 -0.002057    0.35    119.20   
    63. A(N   4,C   5,C   6)          125.92  0.002041   -0.41    125.50   
    64. A(N   4,C   5,C  10)          115.24  0.000016    0.06    115.30   
    65. A(C   7,C   6,H  26)          121.43 -0.002733    0.34    121.77   
    66. A(C   5,C   6,H  26)          118.64 -0.003001    0.38    119.02   
    67. A(C   5,C   6,C   7)          119.93  0.005734   -0.72    119.21   
    68. A(C   8,C   7,H  27)          120.31  0.002432   -0.28    120.04   
    69. A(C   6,C   7,H  27)          119.41  0.002295   -0.26    119.15   
    70. A(C   6,C   7,C   8)          120.27 -0.004727    0.54    120.81   
    71. A(C   7,C   8,H  28)          119.71  0.000720   -0.04    119.67   
    72. A(C   7,C   8,C   9)          120.77 -0.003453    0.37    121.15   
    73. A(C   9,C   8,H  28)          119.52  0.002733   -0.34    119.18   
    74. A(C  10,C   9,H  29)          120.77 -0.000646    0.05    120.81   
    75. A(C   8,C   9,H  29)          120.97 -0.002031    0.25    121.22   
    76. A(C   8,C   9,C  10)          118.26  0.002677   -0.30    117.96   
    77. A(C   5,C  10,C   9)          121.92  0.001826   -0.24    121.67   
    78. A(C   9,C  10,S  11)          129.40 -0.000905   -0.16    129.25   
    79. A(C   5,C  10,S  11)          108.68 -0.000921    0.40    109.08   
    80. A(C   3,S  11,C  10)           91.55  0.020499   -2.30     89.25   
    81. A(C   2,C  12,H  30)          120.03  0.002344   -0.36    119.67   
    82. A(C   2,C  12,C  13)          123.50  0.003647   -0.53    122.97   
    83. A(C  13,C  12,H  30)          116.47 -0.005991    0.89    117.36   
    84. A(C  12,C  13,C  14)          120.91 -0.004511    0.45    121.36   
    85. A(C  14,C  13,C  24)          119.98  0.002682   -0.31    119.67   
    86. A(C  12,C  13,C  24)          119.11  0.001828   -0.14    118.97   
    87. A(C  15,C  14,H  31)          118.87 -0.002290    0.34    119.21   
    88. A(C  13,C  14,H  31)          120.10  0.001580   -0.23    119.87   
    89. A(C  13,C  14,C  15)          121.03  0.000710   -0.11    120.92   
    90. A(C  16,C  15,H  32)          120.71  0.003408   -0.46    120.25   
    91. A(C  14,C  15,H  32)          118.97 -0.000325    0.09    119.06   
    92. A(C  14,C  15,C  16)          120.32 -0.003083    0.37    120.69   
    93. A(C  15,C  16,C  17)          121.06 -0.005491    0.61    121.67   
    94. A(C  17,C  16,C  25)          119.78  0.005234   -0.60    119.18   
    95. A(C  15,C  16,C  25)          119.16  0.000257   -0.01    119.15   
    96. A(C  18,C  17,H  33)          119.03 -0.001133    0.23    119.25   
    97. A(C  16,C  17,H  33)          120.35  0.003502   -0.46    119.88   
    98. A(C  16,C  17,C  18)          120.63 -0.002368    0.23    120.86   
    99. A(C  17,C  18,C  19)          119.86 -0.003024    0.37    120.23   
   100. A(H  34,C  18,N  40)           19.31  0.000158   -0.03     19.28   
   101. A(C  19,C  18,N  40)          117.61  0.001450   -0.16    117.46   
   102. A(C  17,C  18,N  40)          118.83  0.001361   -0.18    118.65   
   103. A(C  19,C  18,H  34)          119.99  0.001200   -0.16    119.83   
   104. A(C  17,C  18,H  34)          120.15  0.001824   -0.21    119.93   
   105. A(C  18,C  19,C  20)          120.63 -0.000632    0.06    120.68   
   106. A(C  20,C  19,H  35)          120.11  0.002123   -0.30    119.82   
   107. A(C  18,C  19,H  35)          119.26 -0.001490    0.24    119.50   
   108. A(C  19,C  20,C  21)          121.23 -0.007759    0.80    122.02   
   109. A(C  21,C  20,C  25)          118.87  0.002819   -0.21    118.65   
   110. A(C  19,C  20,C  25)          119.91  0.004940   -0.58    119.33   
   111. A(C  20,C  21,C  22)          120.28 -0.000873    0.18    120.46   
   112. A(C  22,C  21,H  36)          118.39 -0.001752    0.24    118.63   
   113. A(C  20,C  21,H  36)          121.33  0.002625   -0.41    120.91   
   114. A(C  23,C  22,H  37)          118.34  0.000056   -0.03    118.31   
   115. A(C  21,C  22,H  37)          118.31 -0.005701    0.83    119.14   
   116. A(C  21,C  22,C  23)          123.35  0.005645   -0.81    122.54   
   117. A(C  22,C  23,C  24)          115.73 -0.013560    1.64    117.37   
   118. A(C   1,C  23,C  24)          122.40  0.007794   -0.87    121.53   
   119. A(C   1,C  23,C  22)          121.87  0.005766   -0.77    121.10   
   120. A(C  23,C  24,C  25)          121.54  0.004183   -0.62    120.92   
   121. A(C  13,C  24,C  25)          118.93 -0.002930    0.40    119.33   
   122. A(C  13,C  24,C  23)          119.53 -0.001254    0.22    119.75   
   123. A(C  20,C  25,C  24)          120.23  0.001786   -0.18    120.05   
   124. A(C  16,C  25,C  24)          120.58  0.002363   -0.34    120.24   
   125. A(C  16,C  25,C  20)          119.20 -0.004149    0.52    119.71   
   126. A(C  39,H  34,N  40)            5.49  0.002040   -0.09      5.39   
   127. A(C  18,H  34,N  40)          157.19 -0.000467    0.05    157.24   
   128. A(C  18,H  34,C  39)          162.41  0.001479   -0.04    162.37   
   129. A(H  42,C  38,H  43)          108.10 -0.003846    0.62    108.72   
   130. A(H  41,C  38,H  43)          108.10 -0.003504    0.62    108.72   
   131. A(C  39,C  38,H  43)          110.81  0.003642   -0.60    110.21   
   132. A(H  41,C  38,H  42)          108.10 -0.003856    0.62    108.72   
   133. A(C  39,C  38,H  42)          110.81  0.003424   -0.59    110.22   
   134. A(C  39,C  38,H  41)          110.81  0.003624   -0.59    110.22   
   135. A(H  34,C  39,N  40)           28.97  0.003068   -0.04     28.93   
   136. A(H  34,C  39,C  38)          151.03 -0.000227    0.05    151.08   
   137. A(H  34,N  40,C  39)          145.54 -0.005107    0.13    145.68   
   138. A(C  18,N  40,C  39)          148.90 -0.004791    0.11    149.00   
   139. D(C  12,C   2,C   1,C  23)     -0.00  0.000001   -0.00     -0.01   
   140. D(C  12,C   2,C   1,O   0)    179.99  0.000007   -0.01    179.98   
   141. D(C   3,C   2,C   1,C  23)    180.00  0.000000   -0.00    180.00   
   142. D(C   3,C   2,C   1,O   0)     -0.01  0.000006   -0.01     -0.01   
   143. D(S  11,C   3,C   2,C   1)    179.96  0.000000   -0.00    179.96   
   144. D(S  11,C   3,C   2,C  12)     -0.04 -0.000000    0.00     -0.03   
   145. D(N   4,C   3,C   2,C   1)     -0.04 -0.000002    0.00     -0.04   
   146. D(N   4,C   3,C   2,C  12)    179.96 -0.000002    0.00    179.97   
   147. D(C   5,N   4,C   3,S  11)     -0.00 -0.000004    0.00     -0.00   
   148. D(C   5,N   4,C   3,C   2)    180.00 -0.000002    0.00    180.00   
   149. D(C   6,C   5,N   4,C   3)   -179.99  0.000005   -0.00   -180.00   
   150. D(C  10,C   5,N   4,C   3)      0.01  0.000005   -0.00      0.00   
   151. D(H  26,C   6,C   5,C  10)   -180.00  0.000002   -0.00   -180.00   
   152. D(C   7,C   6,C   5,N   4)   -180.00  0.000002   -0.00   -180.00   
   153. D(H  26,C   6,C   5,N   4)      0.00  0.000002   -0.00      0.00   
   154. D(C   7,C   6,C   5,C  10)      0.00  0.000001   -0.00      0.00   
   155. D(H  27,C   7,C   6,H  26)     -0.00 -0.000000    0.00     -0.00   
   156. D(C   8,C   7,C   6,H  26)   -180.00  0.000000   -0.00   -180.00   
   157. D(C   8,C   7,C   6,C   5)      0.00  0.000001   -0.00      0.00   
   158. D(H  27,C   7,C   6,C   5)    180.00  0.000001   -0.00    180.00   
   159. D(H  28,C   8,C   7,H  27)      0.00  0.000001   -0.00     -0.00   
   160. D(H  28,C   8,C   7,C   6)    180.00  0.000001   -0.00    180.00   
   161. D(C   9,C   8,C   7,H  27)    180.00 -0.000000    0.00    180.00   
   162. D(C   9,C   8,C   7,C   6)     -0.01 -0.000001    0.00     -0.00   
   163. D(H  29,C   9,C   8,C   7)   -180.00  0.000002   -0.00   -180.00   
   164. D(H  29,C   9,C   8,H  28)     -0.00  0.000000   -0.00     -0.00   
   165. D(C  10,C   9,C   8,H  28)    180.00 -0.000001    0.00    180.00   
   166. D(C  10,C   9,C   8,C   7)      0.00  0.000001   -0.00      0.00   
   167. D(S  11,C  10,C   5,N   4)     -0.01 -0.000003    0.00     -0.00   
   168. D(C   9,C  10,C   5,C   6)     -0.01 -0.000002    0.00     -0.00   
   169. D(C   9,C  10,C   5,N   4)    179.99 -0.000002    0.00    180.00   
   170. D(S  11,C  10,C   5,C   6)    179.99 -0.000002    0.00    180.00   
   171. D(S  11,C  10,C   9,H  29)      0.00  0.000001   -0.00      0.00   
   172. D(C   5,C  10,C   9,H  29)   -180.00  0.000000   -0.00   -180.00   
   173. D(C   5,C  10,C   9,C   8)      0.00  0.000002   -0.00      0.00   
   174. D(S  11,C  10,C   9,C   8)   -180.00  0.000002   -0.00   -180.00   
   175. D(C   3,S  11,C  10,C   9)   -180.00  0.000000   -0.00   -180.00   
   176. D(C   3,S  11,C  10,C   5)      0.00  0.000001   -0.00      0.00   
   177. D(C  10,S  11,C   3,N   4)      0.00  0.000002   -0.00     -0.00   
   178. D(C  10,S  11,C   3,C   2)    180.00  0.000001   -0.00    180.00   
   179. D(H  30,C  12,C   2,C   3)     -0.01  0.000000   -0.00     -0.01   
   180. D(H  30,C  12,C   2,C   1)    179.99 -0.000001    0.00    180.00   
   181. D(C  13,C  12,C   2,C   3)    180.00  0.000004   -0.00    179.99   
   182. D(C  13,C  12,C   2,C   1)     -0.00  0.000003   -0.00     -0.00   
   183. D(C  24,C  13,C  12,H  30)   -179.99  0.000001   -0.00   -179.99   
   184. D(C  24,C  13,C  12,C   2)      0.00 -0.000003    0.00      0.01   
   185. D(C  14,C  13,C  12,H  30)      0.01 -0.000000    0.00      0.01   
   186. D(C  14,C  13,C  12,C   2)   -180.00 -0.000004    0.00   -179.99   
   187. D(H  31,C  14,C  13,C  24)   -180.00  0.000005   -0.00   -180.00   
   188. D(H  31,C  14,C  13,C  12)      0.00  0.000006   -0.01     -0.00   
   189. D(C  15,C  14,C  13,C  24)      0.00  0.000004   -0.00     -0.00   
   190. D(C  15,C  14,C  13,C  12)   -180.00  0.000005   -0.01   -180.00   
   191. D(H  32,C  15,C  14,H  31)      0.00  0.000003   -0.00     -0.00   
   192. D(H  32,C  15,C  14,C  13)   -180.00  0.000003   -0.00   -180.00   
   193. D(C  16,C  15,C  14,H  31)    180.00 -0.000004    0.00    180.00   
   194. D(C  16,C  15,C  14,C  13)     -0.00 -0.000003    0.00      0.00   
   195. D(C  25,C  16,C  15,H  32)    180.00 -0.000008    0.01    180.01   
   196. D(C  25,C  16,C  15,C  14)      0.00 -0.000001    0.00      0.00   
   197. D(C  17,C  16,C  15,H  32)     -0.00 -0.000010    0.01      0.01   
   198. D(C  17,C  16,C  15,C  14)   -180.00 -0.000004    0.00   -179.99   
   199. D(H  33,C  17,C  16,C  15)     -0.00  0.000003   -0.00     -0.00   
   200. D(C  18,C  17,C  16,C  25)      0.00 -0.000012    0.01      0.01   
   201. D(C  18,C  17,C  16,C  15)   -179.99 -0.000009    0.01   -179.99   
   202. D(H  33,C  17,C  16,C  25)    180.00  0.000001   -0.00    180.00   
   203. D(N  40,C  18,C  17,H  33)    -22.16 -0.000276    0.06    -22.10   
   204. D(H  34,C  18,C  17,H  33)      0.01  0.000224   -0.01     -0.01   
   205. D(H  34,C  18,C  17,C  16)   -180.00  0.000236   -0.02   -180.02   
   206. D(C  19,C  18,C  17,H  33)   -180.00  0.000003    0.00   -180.00   
   207. D(C  19,C  18,C  17,C  16)     -0.00  0.000016   -0.01     -0.01   
   208. D(N  40,C  18,C  17,C  16)    157.84 -0.000263    0.05    157.88   
   209. D(H  35,C  19,C  18,N  40)     21.90  0.000276   -0.05     21.84   
   210. D(H  35,C  19,C  18,H  34)     -0.00 -0.000223    0.01      0.01   
   211. D(H  35,C  19,C  18,C  17)   -180.00 -0.000003   -0.00   -180.00   
   212. D(C  20,C  19,C  18,N  40)   -158.10  0.000266   -0.04   -158.15   
   213. D(C  20,C  19,C  18,H  34)    180.00 -0.000233    0.02    180.02   
   214. D(C  20,C  19,C  18,C  17)      0.00 -0.000012    0.01      0.01   
   215. D(C  25,C  20,C  19,H  35)    180.00 -0.000004    0.01    180.01   
   216. D(C  25,C  20,C  19,C  18)      0.00  0.000006   -0.00     -0.00   
   217. D(C  21,C  20,C  19,H  35)     -0.00 -0.000006    0.01      0.01   
   218. D(C  21,C  20,C  19,C  18)   -180.00  0.000003   -0.00   -180.00   
   219. D(H  36,C  21,C  20,C  25)    180.00  0.000006   -0.01    179.99   
   220. D(H  36,C  21,C  20,C  19)     -0.00  0.000008   -0.01     -0.01   
   221. D(C  22,C  21,C  20,C  25)     -0.00  0.000004   -0.00     -0.01   
   222. D(C  22,C  21,C  20,C  19)    180.00  0.000006   -0.01    179.99   
   223. D(H  37,C  22,C  21,H  36)     -0.00 -0.000002    0.00      0.00   
   224. D(H  37,C  22,C  21,C  20)    180.00  0.000000    0.00    180.00   
   225. D(C  23,C  22,C  21,H  36)   -180.00 -0.000003    0.00   -179.99   
   226. D(C  23,C  22,C  21,C  20)      0.00 -0.000001    0.00      0.00   
   227. D(C  24,C  23,C  22,H  37)   -180.00 -0.000004    0.00   -179.99   
   228. D(C  24,C  23,C  22,C  21)     -0.00 -0.000003    0.00      0.00   
   229. D(C   1,C  23,C  22,H  37)      0.00 -0.000004    0.00      0.01   
   230. D(C   1,C  23,C  22,C  21)   -180.00 -0.000003    0.00   -180.00   
   231. D(C  24,C  23,C   1,C   2)      0.01 -0.000004    0.00      0.01   
   232. D(C  24,C  23,C   1,O   0)   -179.99 -0.000010    0.01   -179.98   
   233. D(C  22,C  23,C   1,C   2)   -180.00 -0.000004    0.01   -179.99   
   234. D(C  22,C  23,C   1,O   0)      0.01 -0.000010    0.01      0.02   
   235. D(C  25,C  24,C  23,C  22)     -0.00  0.000005   -0.01     -0.01   
   236. D(C  25,C  24,C  23,C   1)    180.00  0.000005   -0.01    179.99   
   237. D(C  13,C  24,C  23,C  22)   -180.00  0.000004   -0.01   -180.01   
   238. D(C  13,C  24,C  23,C   1)     -0.00  0.000005   -0.01     -0.01   
   239. D(C  25,C  24,C  13,C  14)      0.00 -0.000001    0.00      0.00   
   240. D(C  25,C  24,C  13,C  12)    180.00 -0.000002    0.00    180.00   
   241. D(C  23,C  24,C  13,C  14)    180.00  0.000000    0.00    180.00   
   242. D(C  23,C  24,C  13,C  12)     -0.00 -0.000001    0.00     -0.00   
   243. D(C  20,C  25,C  24,C  23)      0.00 -0.000003    0.00      0.01   
   244. D(C  20,C  25,C  24,C  13)   -180.00 -0.000002    0.00   -180.00   
   245. D(C  16,C  25,C  24,C  23)   -180.00 -0.000004    0.00   -179.99   
   246. D(C  16,C  25,C  24,C  13)      0.00 -0.000004    0.00      0.00   
   247. D(C  24,C  25,C  20,C  21)     -0.00 -0.000001    0.00      0.00   
   248. D(C  24,C  25,C  20,C  19)    180.00 -0.000004    0.00    180.00   
   249. D(C  16,C  25,C  20,C  21)    180.00  0.000000    0.00    180.00   
   250. D(C  16,C  25,C  20,C  19)     -0.00 -0.000003    0.00      0.00   
   251. D(C  24,C  25,C  16,C  17)    180.00  0.000007   -0.01    179.99   
   252. D(C  24,C  25,C  16,C  15)     -0.00  0.000004   -0.00     -0.01   
   253. D(C  20,C  25,C  16,C  17)     -0.00  0.000006   -0.01     -0.01   
   254. D(C  20,C  25,C  16,C  15)    180.00  0.000003   -0.00    179.99   
   255. D(N  40,H  34,C  18,C  19)     88.34  0.001146   -0.04     88.30   
   256. D(N  40,H  34,C  18,C  17)    -91.66  0.000925   -0.03    -91.69   
   257. D(C  39,H  34,C  18,N  40)     -4.97 -0.001943    0.07     -4.90   
   258. D(C  39,H  34,C  18,C  19)     83.37 -0.000797    0.03     83.40   
   259. D(C  39,H  34,C  18,C  17)    -96.63 -0.001018    0.04    -96.59   
   260. D(H  34,C  39,C  38,H  43)    124.93 -0.000117    0.00    124.93   
   261. D(H  34,C  39,C  38,H  42)      4.93  0.000062    0.00      4.93   
   262. D(H  34,C  39,C  38,H  41)   -115.07  0.000265   -0.00   -115.07   
   263. D(N  40,C  39,H  34,C  18)     20.56  0.000834    0.01     20.57   
   264. D(C  38,C  39,H  34,N  40)    180.00 -0.000367    0.00    180.00   
   265. D(C  38,C  39,H  34,C  18)   -159.44  0.000467    0.02   -159.42   
   266. D(C  18,N  40,C  39,H  34)     -1.86  0.000209    0.00     -1.86   
   267. D(H  34,N  40,C  38,H  43)    124.93  0.000115    0.00    124.94   
   268. D(H  34,N  40,C  38,H  42)      4.93 -0.000104    0.00      4.93   
   269. D(H  34,N  40,C  38,H  41)   -115.07 -0.000332   -0.00   -115.07   
   270. D(C  18,N  40,C  38,H  43)    123.08  0.000259    0.00    123.08   
   271. D(C  18,N  40,C  38,H  42)      3.08  0.000040    0.00      3.08   
   272. D(C  18,N  40,C  38,H  41)   -116.92 -0.000188   -0.00   -116.93   
   273. D(C  39,N  40,H  34,C  18)   -164.11 -0.001010    0.08   -164.03   
   274. D(C  39,N  40,C  18,H  34)     17.45 -0.001273    0.08     17.53   
   275. D(C  39,N  40,C  18,C  19)    -84.86 -0.000819    0.12    -84.74   
   276. D(C  39,N  40,C  18,C  17)    116.80  0.000444   -0.05    116.75   
    ----------------------------------------------------------------------------

         *************************************************************
         *                GEOMETRY OPTIMIZATION CYCLE   2            *
         *************************************************************
---------------------------------
CARTESIAN COORDINATES (ANGSTROEM)
---------------------------------
  O     0.745699    0.818751   -2.286632
  C     0.178147    0.448527   -1.239607
  C     0.894202   -0.027295   -0.076029
  C     2.345305   -0.105901   -0.052493
  N     3.135893    0.223726   -1.023269
  C     4.441269    0.040397   -0.704628
  C     5.526691    0.306026   -1.543575
  C     6.807213    0.070375   -1.083696
  C     7.024520   -0.426465    0.200464
  C     5.967640   -0.697926    1.051289
  C     4.679337   -0.460101    0.586810
  S     3.174146   -0.690641    1.386642
  C     0.198558   -0.422016    1.052568
  C    -1.203562   -0.386895    1.137792
  C    -1.877384   -0.796824    2.304077
  C    -3.251173   -0.758543    2.377546
  C    -4.018873   -0.306413    1.282919
  C    -5.419684   -0.258814    1.335596
  C    -6.158362    0.188651    0.248806
  C    -5.517745    0.596923   -0.909229
  C    -4.115473    0.564865   -1.002709
  C    -3.436090    0.972615   -2.164292
  C    -2.058572    0.927860   -2.220702
  C    -1.272651    0.482532   -1.145812
  C    -1.946441    0.071168    0.024189
  C    -3.357739    0.109692    0.101605
  H     5.340703    0.690246   -2.534447
  H     7.645079    0.275864   -1.732495
  H     8.034094   -0.604092    0.541361
  H     6.134489   -1.082407    2.045237
  H     0.740738   -0.776953    1.919293
  H    -1.313097   -1.147400    3.156735
  H    -3.737225   -1.080206    3.287271
  H    -5.935774   -0.573647    2.231263
  H    -7.236146    0.218715    0.305577
  H    -6.104392    0.943133   -1.748126
  H    -3.978017    1.326289   -3.028645
  H    -1.557570    1.246755   -3.125348
  C   -15.252176   -1.076669   -0.337524
  C   -13.859394   -1.440993   -0.304000
  N   -12.754014   -1.730278   -0.277449
  H   -15.777541   -1.518513    0.509135
  H   -15.359387    0.006962   -0.288887
  H   -15.712469   -1.432675   -1.259173

----------------------------
CARTESIAN COORDINATES (A.U.)
----------------------------
  NO LB    ZA    FRAG    MASS        X           Y           Z
   0 O   8.0000    0    15.999    1.409167    1.547216   -4.321108
   1 C   6.0000    0    12.011    0.336648    0.847594   -2.342519
   2 C   6.0000    0    12.011    1.689796   -0.051581   -0.143673
   3 C   6.0000    0    12.011    4.431984   -0.200124   -0.099197
   4 N   7.0000    0    14.007    5.925978    0.422781   -1.933697
   5 C   6.0000    0    12.011    8.392782    0.076340   -1.331555
   6 C   6.0000    0    12.011   10.443932    0.578306   -2.916933
   7 C   6.0000    0    12.011   12.863768    0.132989   -2.047889
   8 C   6.0000    0    12.011   13.274419   -0.805902    0.378822
   9 C   6.0000    0    12.011   11.277205   -1.318889    1.986647
  10 C   6.0000    0    12.011    8.842665   -0.869465    1.108911
  11 S  16.0000    0    32.060    5.998267   -1.305123    2.620375
  12 C   6.0000    0    12.011    0.375220   -0.797496    1.989065
  13 C   6.0000    0    12.011   -2.274403   -0.731126    2.150115
  14 C   6.0000    0    12.011   -3.547742   -1.505780    4.354074
  15 C   6.0000    0    12.011   -6.143826   -1.433439    4.492911
  16 C   6.0000    0    12.011   -7.594570   -0.579036    2.424366
  17 C   6.0000    0    12.011  -10.241719   -0.489088    2.523910
  18 C   6.0000    0    12.011  -11.637618    0.356499    0.470176
  19 C   6.0000    0    12.011  -10.427028    1.128021   -1.718194
  20 C   6.0000    0    12.011   -7.777117    1.067440   -1.894846
  21 C   6.0000    0    12.011   -6.493268    1.837976   -4.089918
  22 C   6.0000    0    12.011   -3.890137    1.753401   -4.196519
  23 C   6.0000    0    12.011   -2.404962    0.911853   -2.165271
  24 C   6.0000    0    12.011   -3.678240    0.134487    0.045710
  25 C   6.0000    0    12.011   -6.345207    0.207288    0.192005
  26 H   1.0000    0     1.008   10.092467    1.304376   -4.789410
  27 H   1.0000    0     1.008   14.447105    0.521307   -3.273941
  28 H   1.0000    0     1.008   15.182238   -1.141568    1.023025
  29 H   1.0000    0     1.008   11.592504   -2.045453    3.864937
  30 H   1.0000    0     1.008    1.399792   -1.468229    3.626939
  31 H   1.0000    0     1.008   -2.481394   -2.168271    5.965365
  32 H   1.0000    0     1.008   -7.062331   -2.041293    6.212042
  33 H   1.0000    0     1.008  -11.216987   -1.084035    4.216476
  34 H   1.0000    0     1.008  -13.674334    0.413311    0.577457
  35 H   1.0000    0     1.008  -11.535629    1.782263   -3.303480
  36 H   1.0000    0     1.008   -7.517362    2.506322   -5.723310
  37 H   1.0000    0     1.008   -2.943382    2.356025   -5.906053
  38 C   6.0000    0    12.011  -28.822435   -2.034609   -0.637828
  39 C   6.0000    0    12.011  -26.190459   -2.723081   -0.574478
  40 N   7.0000    0    14.007  -24.101594   -3.269751   -0.524302
  41 H   1.0000    0     1.008  -29.815232   -2.869573    0.962126
  42 H   1.0000    0     1.008  -29.025036    0.013156   -0.545918
  43 H   1.0000    0     1.008  -29.692264   -2.707363   -2.379492

      -----------------------------------------------------------      
     |                   =====================                   |     
     |                           x T B                           |     
     |                   =====================                   |     
     |                         S. Grimme                         |     
     |          Mulliken Center for Theoretical Chemistry        |     
     |                    University of Bonn                     |     
      -----------------------------------------------------------      

   * xtb version 6.6.1 (8d0f1dd) compiled by 'stahn@M-Bot' on 2023-08-01

   xtb is free software: you can redistribute it and/or modify it under
   the terms of the GNU Lesser General Public License as published by
   the Free Software Foundation, either version 3 of the License, or
   (at your option) any later version.
   
   xtb is distributed in the hope that it will be useful,
   but WITHOUT ANY WARRANTY; without even the implied warranty of
   MERCHANTABILITY or FITNESS FOR A PARTICULAR PURPOSE.  See the
   GNU Lesser General Public License for more details.
   
   Cite this work as:
   * C. Bannwarth, E. Caldeweyher, S. Ehlert, A. Hansen, P. Pracht,
[...]
   247. D(C  24,C  25,C  20,C  21)     -0.01  0.000000   -0.00     -0.01   
   248. D(C  24,C  25,C  20,C  19)   -180.00  0.000000   -0.00   -180.00   
   249. D(C  16,C  25,C  20,C  21)    179.99  0.000001   -0.00    179.98   
   250. D(C  16,C  25,C  20,C  19)     -0.00  0.000001   -0.00     -0.00   
   251. D(C  24,C  25,C  16,C  17)    179.99 -0.000000    0.00    179.99   
   252. D(C  24,C  25,C  16,C  15)     -0.02 -0.000001    0.00     -0.02   
   253. D(C  20,C  25,C  16,C  17)     -0.01 -0.000001    0.00     -0.01   
   254. D(C  20,C  25,C  16,C  15)    179.98 -0.000002    0.00    179.99   
   255. D(N  40,H  34,C  18,C  19)     89.46  0.000013    0.01     89.47   
   256. D(N  40,H  34,C  18,C  17)    -90.41  0.000019    0.00    -90.41   
   257. D(C  39,H  34,C  18,N  40)     -5.35 -0.000020   -0.00     -5.35   
   258. D(C  39,H  34,C  18,C  19)     84.11 -0.000006    0.01     84.12   
   259. D(C  39,H  34,C  18,C  17)    -95.76 -0.000001   -0.00    -95.76   
   260. D(H  34,C  39,C  38,H  43)    126.33  0.000008   -0.03    126.31   
   261. D(H  34,C  39,C  38,H  42)      6.32  0.000008   -0.02      6.31   
   262. D(H  34,C  39,C  38,H  41)   -113.67  0.000028   -0.02   -113.70   
   263. D(N  40,C  39,H  34,C  18)     28.74  0.000020    0.05     28.79   
   264. D(C  38,C  39,H  34,N  40)   -179.40  0.000001   -0.10   -179.50   
   265. D(C  38,C  39,H  34,C  18)   -150.67  0.000021   -0.05   -150.71   
   266. D(C  18,N  40,C  39,H  34)     -6.87  0.000037    0.00     -6.87   
   267. D(H  34,N  40,C  38,H  43)    126.68  0.000031   -0.08    126.60   
   268. D(H  34,N  40,C  38,H  42)      6.68  0.000015   -0.07      6.60   
   269. D(H  34,N  40,C  38,H  41)   -113.36  0.000009   -0.06   -113.42   
   270. D(C  18,N  40,C  38,H  43)    119.66 -0.000020   -0.05    119.62   
   271. D(C  18,N  40,C  38,H  42)     -0.34 -0.000036   -0.04     -0.38   
   272. D(C  18,N  40,C  38,H  41)   -120.38 -0.000042   -0.03   -120.41   
   273. D(C  39,N  40,H  34,C  18)   -156.55  0.000001    0.05   -156.51   
   274. D(C  39,N  40,C  18,H  34)     30.26 -0.000037    0.05     30.31   
   275. D(C  39,N  40,C  18,C  19)    -64.60 -0.000030    0.06    -64.55   
   276. D(C  39,N  40,C  18,C  17)    124.16  0.000001    0.04    124.20   
    ----------------------------------------------------------------------------
                 *******************************************************
                 *** FINAL ENERGY EVALUATION AT THE STATIONARY POINT ***
                 ***               (AFTER   26 CYCLES)               ***
                 *******************************************************
---------------------------------
CARTESIAN COORDINATES (ANGSTROEM)
---------------------------------
  O     0.589710    0.790734   -2.204148
  C     0.009682    0.391706   -1.206024
  C     0.704468   -0.090127    0.006388
  C     2.135406   -0.106825    0.011472
  N     2.901825    0.219607   -0.958208
  C     4.217298    0.109565   -0.672861
  C     5.268950    0.398788   -1.541894
  C     6.561858    0.234633   -1.098148
  C     6.828852   -0.213130    0.196522
  C     5.806092   -0.506746    1.076637
  C     4.501907   -0.345014    0.640938
  S     3.026456   -0.626651    1.497688
  C    -0.005785   -0.510378    1.102734
  C    -1.412079   -0.518854    1.149587
  C    -2.121901   -0.956629    2.288191
  C    -3.485596   -0.959320    2.312167
  C    -4.242884   -0.522233    1.192143
  C    -5.641923   -0.516138    1.192828
  C    -6.350246   -0.083052    0.082776
  C    -5.687991    0.350680   -1.047060
  C    -4.282587    0.363867   -1.097059
  C    -3.568570    0.801909   -2.236194
  C    -2.199137    0.801894   -2.249140
  C    -1.461926    0.367966   -1.137360
  C    -2.138985   -0.074243    0.010732
  C    -3.553568   -0.077629    0.035371
  H     5.043297    0.743651   -2.537786
  H     7.386442    0.454882   -1.759521
  H     7.853126   -0.332367    0.516680
  H     6.011075   -0.852924    2.077864
  H     0.532529   -0.855966    1.976528
  H    -1.558910   -1.292152    3.147480
  H    -4.017262   -1.296737    3.190211
  H    -6.169994   -0.854547    2.072346
  H    -7.429541   -0.087784    0.103442
  H    -6.245408    0.686404   -1.909151
  H    -4.124899    1.137909   -3.099208
  H    -1.645752    1.135332   -3.114795
  C   -14.024961   -0.770066   -0.192298
  C   -12.590864   -0.750115   -0.123393
  N   -11.449406   -0.735935   -0.069672
  H   -14.429267   -1.153757    0.743680
  H   -14.395836    0.240504   -0.359541
  H   -14.340924   -1.412308   -1.013537

----------------------------
CARTESIAN COORDINATES (A.U.)
----------------------------
  NO LB    ZA    FRAG    MASS        X           Y           Z
   0 O   8.0000    0    15.999    1.114390    1.494271   -4.165236
   1 C   6.0000    0    12.011    0.018296    0.740217   -2.279055
   2 C   6.0000    0    12.011    1.331251   -0.170315    0.012071
   3 C   6.0000    0    12.011    4.035332   -0.201870    0.021679
   4 N   7.0000    0    14.007    5.483655    0.414996   -1.810750
   5 C   6.0000    0    12.011    7.969538    0.207047   -1.271522
   6 C   6.0000    0    12.011    9.956873    0.753601   -2.913756
   7 C   6.0000    0    12.011   12.400114    0.443392   -2.075200
   8 C   6.0000    0    12.011   12.904660   -0.402757    0.371373
   9 C   6.0000    0    12.011   10.971923   -0.957610    2.034550
  10 C   6.0000    0    12.011    8.507370   -0.651983    1.211197
  11 S  16.0000    0    32.060    5.719172   -1.184198    2.830219
  12 C   6.0000    0    12.011   -0.010932   -0.964475    2.083865
  13 C   6.0000    0    12.011   -2.668442   -0.980492    2.172404
  14 C   6.0000    0    12.011   -4.009812   -1.807768    4.324055
  15 C   6.0000    0    12.011   -6.586823   -1.812853    4.369362
  16 C   6.0000    0    12.011   -8.017889   -0.986877    2.252823
  17 C   6.0000    0    12.011  -10.661690   -0.975359    2.254119
  18 C   6.0000    0    12.011  -12.000225   -0.156946    0.156424
  19 C   6.0000    0    12.011  -10.748745    0.662690   -1.978657
  20 C   6.0000    0    12.011   -8.092916    0.687608   -2.073141
  21 C   6.0000    0    12.011   -6.743620    1.515388   -4.225795
  22 C   6.0000    0    12.011   -4.155767    1.515360   -4.250259
  23 C   6.0000    0    12.011   -2.762640    0.695356   -2.149299
  24 C   6.0000    0    12.011   -4.042097   -0.140298    0.020281
  25 C   6.0000    0    12.011   -6.715270   -0.146697    0.066842
  26 H   1.0000    0     1.008    9.530451    1.405297   -4.795720
  27 H   1.0000    0     1.008   13.958353    0.859603   -3.325013
  28 H   1.0000    0     1.008   14.840258   -0.628082    0.976383
  29 H   1.0000    0     1.008   11.359285   -1.611793    3.926594
  30 H   1.0000    0     1.008    1.006333   -1.617542    3.735096
  31 H   1.0000    0     1.008   -2.945914   -2.441813    5.947876
  32 H   1.0000    0     1.008   -7.591524   -2.450477    6.028625
  33 H   1.0000    0     1.008  -11.659600   -1.614860    3.916166
  34 H   1.0000    0     1.008  -14.039797   -0.165888    0.195477
  35 H   1.0000    0     1.008  -11.802110    1.297115   -3.607773
  36 H   1.0000    0     1.008   -7.794929    2.150336   -5.856655
  37 H   1.0000    0     1.008   -3.110021    2.145467   -5.886109
  38 C   6.0000    0    12.011  -26.503335   -1.455213   -0.363390
  39 C   6.0000    0    12.011  -23.793285   -1.417512   -0.233180
  40 N   7.0000    0    14.007  -21.636242   -1.390716   -0.131661
  41 H   1.0000    0     1.008  -27.267363   -2.180286    1.405351
  42 H   1.0000    0     1.008  -27.204187    0.454487   -0.679435
  43 H   1.0000    0     1.008  -27.100420   -2.668875   -1.915307

      -----------------------------------------------------------      
     |                   =====================                   |     
     |                           x T B                           |     
     |                   =====================                   |     
     |                         S. Grimme                         |     
     |          Mulliken Center for Theoretical Chemistry        |     
     |                    University of Bonn                     |     
      -----------------------------------------------------------      

   * xtb version 6.6.1 (8d0f1dd) compiled by 'stahn@M-Bot' on 2023-08-01

   xtb is free software: you can redistribute it and/or modify it under
   the terms of the GNU Lesser General Public License as published by
   the Free Software Foundation, either version 3 of the License, or
   (at your option) any later version.
   
   xtb is distributed in the hope that it will be useful,
   but WITHOUT ANY WARRANTY; without even the implied warranty of
   MERCHANTABILITY or FITNESS FOR A PARTICULAR PURPOSE.  See the
   GNU Lesser General Public License for more details.
   
   Cite this work as:
   * C. Bannwarth, E. Caldeweyher, S. Ehlert, A. Hansen, P. Pracht,
     J. Seibert, S. Spicher, S. Grimme, WIREs Comput. Mol. Sci., 2020, 11,
     e01493. DOI: 10.1002/wcms.1493
   
   for GFN2-xTB:
   * C. Bannwarth, S. Ehlert and S. Grimme., J. Chem. Theory Comput., 2019,
     15, 1652-1671. DOI: 10.1021/acs.jctc.8b01176
   for GFN1-xTB:
   * S. Grimme, C. Bannwarth, P. Shushkov, J. Chem. Theory Comput., 2017,
     13, 1989-2009. DOI: 10.1021/acs.jctc.7b00118
   for GFN0-xTB:
   * P. Pracht, E. Caldeweyher, S. Ehlert, S. Grimme, ChemRxiv, 2019, preprint.
     DOI: 10.26434/chemrxiv.8326202.v1
   for GFN-FF:
   * S. Spicher and S. Grimme, Angew. Chem. Int. Ed., 2020, 59, 15665-15673.
     DOI: 10.1002/anie.202004239
   
   for ALPB and GBSA implicit solvation:
   * S. Ehlert, M. Stahn, S. Spicher, S. Grimme, J. Chem. Theory Comput.,
     2021, 17, 4250-4261. DOI: 10.1021/acs.jctc.1c00471
   
   for DFT-D4:
   * E. Caldeweyher, C. Bannwarth and S. Grimme, J. Chem. Phys., 2017,
     147, 034112. DOI: 10.1063/1.4993215
   * E. Caldeweyher, S. Ehlert, A. Hansen, H. Neugebauer, S. Spicher,
     C. Bannwarth and S. Grimme, J. Chem. Phys., 2019, 150, 154122.
     DOI: 10.1063/1.5090222
   * E. Caldeweyher, J.-M. Mewes, S. Ehlert and S. Grimme, Phys. Chem. Chem. Phys.
     2020, 22, 8499-8512. DOI: 10.1039/D0CP00502A
   
   for sTDA-xTB:
   * S. Grimme and C. Bannwarth, J. Chem. Phys., 2016, 145, 054103.
     DOI: 10.1063/1.4959605
   
   in the mass-spec context:
   * V. Asgeirsson, C. Bauer and S. Grimme, Chem. Sci., 2017, 8, 4879.
     DOI: 10.1039/c7sc00601b
   * J. Koopman and S. Grimme, ACS Omega 2019, 4, 12, 15120-15133.
     DOI: 10.1021/acsomega.9b02011
   
   for metadynamics refer to:
   * S. Grimme, J. Chem. Theory Comput., 2019, 155, 2847-2862
     DOI: 10.1021/acs.jctc.9b00143
   
   for SPH calculations refer to:
   * S. Spicher and S. Grimme, J. Chem. Theory Comput., 2021, 17, 1701-1714
     DOI: 10.1021/acs.jctc.0c01306
   
   with help from (in alphabetical order)
   P. Atkinson, C. Bannwarth, F. Bohle, G. Brandenburg, E. Caldeweyher
   M. Checinski, S. Dohm, S. Ehlert, S. Ehrlich, I. Gerasimov, C. Hölzer
   A. Katbashev, J. Koopman, C. Lavigne, S. Lehtola, F. März, M. Müller,
   F. Musil, H. Neugebauer, J. Pisarek, C. Plett, P. Pracht, F. Pultar,
   J. Seibert, P. Shushkov, S. Spicher, M. Stahn, M. Steiner, T. Strunk,
   J. Stückrath, T. Rose, and J. Unsleber
   
 * started run on 2025/01/14 at 22:21:01.584     

           -------------------------------------------------
          |                Calculation Setup                |
           -------------------------------------------------

          program call               : /home/jang/cal_tmp/10_orca/orca_5_0_4_linux_x86-64_shared_openmpi411/otool_xtb /home/jang/cal_tmp/10_orca/Gen_chromophore/Gen_molecular_pairs_cal/mol_4_4.xyz/input_XTB.xyz --grad -c 0 -u 0 -P 4 --namespace /home/jang/cal_tmp/10_orca/Gen_chromophore/Gen_molecular_pairs_cal/mol_4_4.xyz/input --input /home/jang/cal_tmp/10_orca/Gen_chromophore/Gen_molecular_pairs_cal/mol_4_4.xyz/input_XTB.input.tmp --acc 1.000000
          hostname                   : node02
          calculation namespace      : /home/jang/cal_tmp/10_orca/Gen_chromophore/Gen_molecular_pairs_cal/mol_4_4.xyz/input
          coordinate file            : /home/jang/cal_tmp/10_orca/Gen_chromophore/Gen_molecular_pairs_cal/mol_4_4.xyz/input_XTB.xyz
          omp threads                :                     4

   ID    Z sym.   atoms
    1    8 O      1
    2    6 C      2-4, 6-11, 13-26, 39, 40
    3    7 N      5, 41
    4   16 S      12
    5    1 H      27-38, 42-44

molecular fragmentation (1/2 indicates fragments):
11111111111111111111111111111111111111222222
# atoms in fragment 1/2:    38     6
 fragment masses (1/2) :      350.41       41.05
CMA distance (Bohr)    :  24.249
constraining FC (au)   :  0.0500

           -------------------------------------------------
          |                 G F N 2 - x T B                 |
           -------------------------------------------------

        Reference                      10.1021/acs.jctc.8b01176
      * Hamiltonian:
        H0-scaling (s, p, d)           1.850000    2.230000    2.230000
        zeta-weighting                 0.500000
      * Dispersion:
        s8                             2.700000
        a1                             0.520000
        a2                             5.000000
        s9                             5.000000
      * Repulsion:
        kExp                           1.500000    1.000000
        rExp                           1.000000
      * Coulomb:
        alpha                          2.000000
        third order                    shell-resolved
        anisotropic                    true
        a3                             3.000000
        a5                             4.000000
        cn-shift                       1.200000
        cn-exp                         4.000000
        max-rad                        5.000000

q/qsh data taken from xtbrestart
CAMM data taken from xtbrestart

          ...................................................
          :                      SETUP                      :
          :.................................................:
          :  # basis functions                 137          :
          :  # atomic orbitals                 136          :
          :  # shells                           74          :
          :  # electrons                       137          :
          :  max. iterations                   250          :
          :  Hamiltonian                  GFN2-xTB          :
          :  restarted?                       true          :
          :  GBSA solvation                  false          :
          :  PC potential                    false          :
          :  electronic temp.          300.0000000     K    :
          :  accuracy                    1.0000000          :
          :  -> integral cutoff          0.2500000E+02      :
          :  -> integral neglect         0.1000000E-07      :
          :  -> SCF convergence          0.1000000E-05 Eh   :
          :  -> wf. convergence          0.1000000E-03 e    :
          :  Broyden damping             0.4000000          :
          ...................................................

 iter      E             dE          RMSdq      gap      omega  full diag
   1    -75.6199068 -0.756199E+02  0.241E-03    1.75       0.0  T
   2    -75.6199068 -0.231904E-08  0.138E-03    1.75      10.9  T
   3    -75.6199068  0.103374E-07  0.501E-04    1.75      30.1  T
   4    -75.6199068 -0.119026E-07  0.116E-04    1.75     130.2  T

   *** convergence criteria satisfied after 4 iterations ***

         #    Occupation            Energy/Eh            Energy/eV
      -------------------------------------------------------------
         1        2.0000           -0.7243495             -19.7106
       ...           ...                  ...                  ...
        63        2.0000           -0.4142148             -11.2714
        64        2.0000           -0.4139624             -11.2645
        65        2.0000           -0.3880298             -10.5588
        66        2.0000           -0.3871327             -10.5344
        67        2.0000           -0.3819771             -10.3941
        68        2.0000           -0.3706554             -10.0860
        69        1.0000           -0.3509330              -9.5494 (HOMO)
        70                         -0.2867022              -7.8016 (LUMO)
        71                         -0.2644483              -7.1960
        72                         -0.2375718              -6.4647
        73                         -0.2365065              -6.4357
        74                         -0.2285713              -6.2197
       ...                                ...                  ...
       136                          1.1426582              31.0933
      -------------------------------------------------------------
                  HL-Gap            0.0642309 Eh            1.7478 eV
             Fermi-level           -0.3398059 Eh           -9.2466 eV

 SCC (total)                   0 d,  0 h,  0 min,  0.082 sec
 SCC setup                      ...        0 min,  0.001 sec (  0.922%)
 Dispersion                     ...        0 min,  0.002 sec (  2.176%)
 classical contributions        ...        0 min,  0.000 sec (  0.192%)
 integral evaluation            ...        0 min,  0.020 sec ( 24.240%)
 iterations                     ...        0 min,  0.040 sec ( 48.610%)
 molecular gradient             ...        0 min,  0.019 sec ( 22.854%)
 printout                       ...        0 min,  0.001 sec (  0.878%)

         :::::::::::::::::::::::::::::::::::::::::::::::::::::
         ::                     SUMMARY                     ::
         :::::::::::::::::::::::::::::::::::::::::::::::::::::
         :: total energy             -74.304150033858 Eh    ::
         :: gradient norm              0.000656711279 Eh/a0 ::
         :: HOMO-LUMO gap              1.747810574253 eV    ::
         ::.................................................::
         :: SCC energy               -75.619906762330 Eh    ::
         :: -> isotropic ES            0.045981936279 Eh    ::
         :: -> anisotropic ES          0.004533211214 Eh    ::
         :: -> anisotropic XC          0.051718150073 Eh    ::
         :: -> dispersion             -0.054477964008 Eh    ::
         :: repulsion energy           1.316436651034 Eh    ::
         :: add. restraining           0.000000000000 Eh    ::
         :: total charge               0.000000000209 e     ::
         :::::::::::::::::::::::::::::::::::::::::::::::::::::


Property printout bound to 'properties.out'

           -------------------------------------------------
          | TOTAL ENERGY              -74.304150033858 Eh   |
          | GRADIENT NORM               0.000656711279 Eh/α |
          | HOMO-LUMO GAP               1.747810574253 eV   |
           -------------------------------------------------

------------------------------------------------------------------------
 * finished run on 2025/01/14 at 22:21:02.008     
------------------------------------------------------------------------
 total:
 * wall-time:     0 d,  0 h,  0 min,  0.423 sec
 *  cpu-time:     0 d,  0 h,  0 min,  0.937 sec
 * ratio c/w:     2.218 speedup
 SCF:
 * wall-time:     0 d,  0 h,  0 min,  0.082 sec
 *  cpu-time:     0 d,  0 h,  0 min,  0.321 sec
 * ratio c/w:     3.912 speedup


-------------------------   --------------------
FINAL SINGLE POINT ENERGY       -74.304150033860
-------------------------   --------------------

                                *** OPTIMIZATION RUN DONE ***

Timings for individual modules:

Sum of individual times         ...       43.261 sec (=   0.721 min)
Geometry relaxation             ...       15.361 sec (=   0.256 min)  35.5 %
XTB module                      ...       27.900 sec (=   0.465 min)  64.5 %
                             ****ORCA TERMINATED NORMALLY****
TOTAL RUN TIME: 0 days 0 hours 2 minutes 2 seconds 804 msec
