
                                 *****************
                                 * O   R   C   A *
                                 *****************

                                            #,                                       
                                            ###                                      
                                            ####                                     
                                            #####                                    
                                            ######                                   
                                           ########,                                 
                                     ,,################,,,,,                         
                               ,,#################################,,                 
                          ,,##########################################,,             
                       ,#########################################, ''#####,          
                    ,#############################################,,   '####,        
                  ,##################################################,,,,####,       
                ,###########''''           ''''###############################       
              ,#####''   ,,,,##########,,,,          '''####'''          '####       
            ,##' ,,,,###########################,,,                        '##       
           ' ,,###''''                  '''############,,,                           
         ,,##''                                '''############,,,,        ,,,,,,###''
      ,#''                                            '''#######################'''  
     '                                                          ''''####''''         
             ,#######,   #######,   ,#######,      ##                                
            ,#'     '#,  ##    ##  ,#'     '#,    #''#        ######   ,####,        
            ##       ##  ##   ,#'  ##            #'  '#       #        #'  '#        
            ##       ##  #######   ##           ,######,      #####,   #    #        
            '#,     ,#'  ##    ##  '#,     ,#' ,#      #,         ##   #,  ,#        
             '#######'   ##     ##  '#######'  #'      '#     #####' # '####'        



                  #######################################################
                  #                        -***-                        #
                  #          Department of theory and spectroscopy      #
                  #    Directorship and core code : Frank Neese         #
                  #        Max Planck Institute fuer Kohlenforschung    #
                  #                Kaiser Wilhelm Platz 1               #
                  #                 D-45470 Muelheim/Ruhr               #
                  #                      Germany                        #
                  #                                                     #
                  #                  All rights reserved                #
                  #                        -***-                        #
                  #######################################################


                         Program Version 5.0.4 -  RELEASE  -


 With contributions from (in alphabetic order):
   Daniel Aravena         : Magnetic Suceptibility
   Michael Atanasov       : Ab Initio Ligand Field Theory (pilot matlab implementation)
   Alexander A. Auer      : GIAO ZORA, VPT2 properties, NMR spectrum
   Ute Becker             : Parallelization
   Giovanni Bistoni       : ED, misc. LED, open-shell LED, HFLD
   Martin Brehm           : Molecular dynamics
   Dmytro Bykov           : SCF Hessian
   Vijay G. Chilkuri      : MRCI spin determinant printing, contributions to CSF-ICE
   Dipayan Datta          : RHF DLPNO-CCSD density
   Achintya Kumar Dutta   : EOM-CC, STEOM-CC
   Dmitry Ganyushin       : Spin-Orbit,Spin-Spin,Magnetic field MRCI
   Miquel Garcia          : C-PCM and meta-GGA Hessian, CC/C-PCM, Gaussian charge scheme
   Yang Guo               : DLPNO-NEVPT2, F12-NEVPT2, CIM, IAO-localization
   Andreas Hansen         : Spin unrestricted coupled pair/coupled cluster methods
   Benjamin Helmich-Paris : MC-RPA, TRAH-SCF, COSX integrals
   Lee Huntington         : MR-EOM, pCC
   Robert Izsak           : Overlap fitted RIJCOSX, COSX-SCS-MP3, EOM
   Marcus Kettner         : VPT2
   Christian Kollmar      : KDIIS, OOCD, Brueckner-CCSD(T), CCSD density, CASPT2, CASPT2-K
   Simone Kossmann        : Meta GGA functionals, TD-DFT gradient, OOMP2, MP2 Hessian
   Martin Krupicka        : Initial AUTO-CI
   Lucas Lang             : DCDCAS
   Marvin Lechner         : AUTO-CI (C++ implementation), FIC-MRCC
   Dagmar Lenk            : GEPOL surface, SMD
   Dimitrios Liakos       : Extrapolation schemes; Compound Job, initial MDCI parallelization
   Dimitrios Manganas     : Further ROCIS development; embedding schemes
   Dimitrios Pantazis     : SARC Basis sets
   Anastasios Papadopoulos: AUTO-CI, single reference methods and gradients
   Taras Petrenko         : DFT Hessian,TD-DFT gradient, ASA, ECA, R-Raman, ABS, FL, XAS/XES, NRVS
   Peter Pinski           : DLPNO-MP2, DLPNO-MP2 Gradient
   Christoph Reimann      : Effective Core Potentials
   Marius Retegan         : Local ZFS, SOC
   Christoph Riplinger    : Optimizer, TS searches, QM/MM, DLPNO-CCSD(T), (RO)-DLPNO pert. Triples
   Tobias Risthaus        : Range-separated hybrids, TD-DFT gradient, RPA, STAB
   Michael Roemelt        : Original ROCIS implementation
   Masaaki Saitow         : Open-shell DLPNO-CCSD energy and density
   Barbara Sandhoefer     : DKH picture change effects
   Avijit Sen             : IP-ROCIS
   Kantharuban Sivalingam : CASSCF convergence, NEVPT2, FIC-MRCI
   Bernardo de Souza      : ESD, SOC TD-DFT
   Georgi Stoychev        : AutoAux, RI-MP2 NMR, DLPNO-MP2 response
   Willem Van den Heuvel  : Paramagnetic NMR
   Boris Wezisla          : Elementary symmetry handling
   Frank Wennmohs         : Technical directorship


 We gratefully acknowledge several colleagues who have allowed us to
 interface, adapt or use parts of their codes:
   Stefan Grimme, W. Hujo, H. Kruse, P. Pracht,  : VdW corrections, initial TS optimization,
                  C. Bannwarth, S. Ehlert          DFT functionals, gCP, sTDA/sTD-DF
   Ed Valeev, F. Pavosevic, A. Kumar             : LibInt (2-el integral package), F12 methods
   Garnet Chan, S. Sharma, J. Yang, R. Olivares  : DMRG
   Ulf Ekstrom                                   : XCFun DFT Library
   Mihaly Kallay                                 : mrcc  (arbitrary order and MRCC methods)
   Jiri Pittner, Ondrej Demel                    : Mk-CCSD
   Frank Weinhold                                : gennbo (NPA and NBO analysis)
   Christopher J. Cramer and Donald G. Truhlar   : smd solvation model
   Lars Goerigk                                  : TD-DFT with DH, B97 family of functionals
   V. Asgeirsson, H. Jonsson                     : NEB implementation
   FAccTs GmbH                                   : IRC, NEB, NEB-TS, DLPNO-Multilevel, CI-OPT
                                                   MM, QMMM, 2- and 3-layer-ONIOM, Crystal-QMMM,
                                                   LR-CPCM, SF, NACMEs, symmetry and pop. for TD-DFT,
                                                   nearIR, NL-DFT gradient (VV10), updates on ESD,
                                                   ML-optimized integration grids
   S Lehtola, MJT Oliveira, MAL Marques          : LibXC Library
   Liviu Ungur et al                             : ANISO software


 Your calculation uses the libint2 library for the computation of 2-el integrals
 For citations please refer to: http://libint.valeyev.net

 Your ORCA version has been built with support for libXC version: 5.1.0
 For citations please refer to: https://tddft.org/programs/libxc/

 This ORCA versions uses:
   CBLAS   interface :  Fast vector & matrix operations
   LAPACKE interface :  Fast linear algebra routines
   SCALAPACK package :  Parallel linear algebra routines
   Shared memory     :  Shared parallel matrices
   BLAS/LAPACK       :  OpenBLAS 0.3.15  USE64BITINT DYNAMIC_ARCH NO_AFFINITY SkylakeX SINGLE_THREADED
        Core in use  :  SkylakeX
   Copyright (c) 2011-2014, The OpenBLAS Project




***************************************
The coordinates will be read from file: mol.xyz
***************************************


Your calculation utilizes the atom-pairwise dispersion correction
with the Becke-Johnson damping scheme (D3BJ)
Cite in your paper:
S.Grimme, S.Ehrlich, L.Goerigk, J Comput Chem, (2011), 32, 1456–1465 
S.Grimme, J.Antony, S.Ehrlich and H.Krieg, J.Chem.Phys., 132, (2010), 154104 
   

Your calculation utilizes the semiempirical GFN2-xTB method
Please cite in your paper:
C. Bannwarth, Ehlert S., S. Grimme,  J. Chem. Theory Comput., 15, (2019), 1652.
   

================================================================================

----- Orbital basis set information -----
Your calculation utilizes the basis: def2-SVP
   F. Weigend and R. Ahlrichs, Phys. Chem. Chem. Phys. 7, 3297 (2005).

----- AuxJ basis set information -----
Your calculation utilizes the auxiliary basis: def2/J
   F. Weigend, Phys. Chem. Chem. Phys. 8, 1057 (2006).

================================================================================
                                        WARNINGS
                       Please study these warnings very carefully!
================================================================================


WARNING: Geometry Optimization
  ===> : Switching off AutoStart
         For restart on a previous wavefunction, please use MOREAD

WARNING: Found dipole moment calculation with XTB calculation
  ===> : Switching off dipole moment calculation


WARNING: TRAH-SCF for XTB is not implemented!
  ===> : Turning TRAH off!

================================================================================
                                       INPUT FILE
================================================================================
NAME = /home/jang/cal_tmp/10_orca/Gen_chromophore/Gen_molecular_pairs_cal/mol_4_5.xyz/input.inp
|  1> ! B3LYP D3BJ def2-SVP TightSCF XTB Opt PAL8
|  2> 
|  3> %geom
|  4>   MaxIter 3000
|  5> end
|  6> 
|  7> * xyzfile 0 1 mol.xyz
|  8> 
|  9> %pal nprocs 4 # any number (positive integer)
| 10> end
| 11> 
| 12>                          ****END OF INPUT****
================================================================================

                       *****************************
                       * Geometry Optimization Run *
                       *****************************

Geometry optimization settings:
Update method            Update   .... BFGS
Choice of coordinates    CoordSys .... Z-matrix Internals
Initial Hessian          InHess   .... Almoef's Model

Convergence Tolerances:
Energy Change            TolE     ....  5.0000e-06 Eh
Max. Gradient            TolMAXG  ....  3.0000e-04 Eh/bohr
RMS Gradient             TolRMSG  ....  1.0000e-04 Eh/bohr
Max. Displacement        TolMAXD  ....  4.0000e-03 bohr
RMS Displacement         TolRMSD  ....  2.0000e-03 bohr
Strict Convergence                ....  False
------------------------------------------------------------------------------
                        ORCA OPTIMIZATION COORDINATE SETUP
------------------------------------------------------------------------------

The optimization will be done in new redundant internal coordinates
Making redundant internal coordinates   ...  (new redundants) done
Evaluating the initial hessian          ...  (Almloef) done
Evaluating the coordinates              ...  done
Calculating the B-matrix                .... done
Calculating the G-matrix                .... done
Diagonalizing the G-matrix              .... done
Small eigenvalue found = 1.791e-03
Small eigenvalue found = 4.800e-03
Small eigenvalue found = 1.351e-02
Small eigenvalue found = 2.109e-02
Small eigenvalue found = 2.390e-02
The first mode is                       ....  131
The number of degrees of freedom        ....  126

    -----------------------------------------------------------------
                    Redundant Internal Coordinates


    -----------------------------------------------------------------
         Definition                    Initial Value    Approx d2E/dq
    -----------------------------------------------------------------
      1. B(C   1,O   0)                  1.2849         0.823387   
      2. B(C   2,C   1)                  1.4424         0.515393   
      3. B(C   3,C   2)                  1.5207         0.386613   
      4. B(N   4,C   3)                  1.3220         0.718419   
      5. B(C   5,N   4)                  1.3751         0.591050   
      6. B(C   6,C   5)                  1.4096         0.581431   
      7. B(C   7,C   6)                  1.3985         0.605619   
      8. B(C   8,C   7)                  1.3914         0.621495   
      9. B(C   9,C   8)                  1.3992         0.604003   
     10. B(C  10,C   9)                  1.4060         0.589182   
     11. B(C  10,C   5)                  1.3887         0.627744   
     12. B(S  11,C  10)                  1.7130         0.514179   
     13. B(S  11,C   3)                  1.7484         0.451512   
     14. B(C  12,C   2)                  1.4199         0.559798   
     15. B(C  13,C  12)                  1.3980         0.606654   
     16. B(C  14,C  13)                  1.4045         0.592457   
     17. B(C  15,C  14)                  1.3944         0.614694   
     18. B(C  16,C  15)                  1.3975         0.607735   
     19. B(C  17,C  16)                  1.4037         0.594110   
     20. B(C  18,C  17)                  1.3933         0.617280   
     21. B(C  19,C  18)                  1.3931         0.617758   
     22. B(C  20,C  19)                  1.4036         0.594309   
     23. B(C  21,C  20)                  1.3932         0.617397   
     24. B(C  22,C  21)                  1.3982         0.606258   
     25. B(C  23,C  22)                  1.4152         0.569485   
     26. B(C  23,C   1)                  1.4538         0.494301   
     27. B(C  24,C  23)                  1.4187         0.562295   
     28. B(C  24,C  13)                  1.4000         0.602352   
     29. B(C  25,C  24)                  1.4263         0.546765   
     30. B(C  25,C  20)                  1.4113         0.577771   
     31. B(C  25,C  16)                  1.4162         0.567433   
     32. B(H  26,C   6)                  1.0856         0.366003   
     33. B(H  27,C   7)                  1.0864         0.364831   
     34. B(H  28,C   8)                  1.0871         0.364009   
     35. B(H  29,C   9)                  1.0848         0.367101   
     36. B(H  30,C  12)                  1.0846         0.367306   
     37. B(H  31,C  14)                  1.0872         0.363849   
     38. B(H  32,C  15)                  1.0863         0.365023   
     39. B(H  33,C  17)                  1.0869         0.364255   
     40. B(H  34,C  18)                  1.0858         0.365644   
     41. B(H  35,C  19)                  1.0871         0.363934   
     42. B(H  36,C  21)                  1.0856         0.365954   
     43. B(H  37,C  22)                  1.0902         0.359800   
     44. B(C  39,H  35)                  7.0166         0.000000   
     45. B(C  39,C  38)                  1.4619         0.479735   
     46. B(N  40,H  36)                  6.7323         0.000000   
     47. B(N  40,H  35)                  6.2386         0.000000   
     48. B(N  40,C  19)                  7.1698         0.000000   
     49. B(N  40,C  39)                  1.1602         1.301459   
     50. B(H  41,C  38)                  1.0940         0.354795   
     51. B(H  42,C  38)                  1.0940         0.354795   
     52. B(H  43,C  38)                  1.0940         0.354795   
     53. A(C   2,C   1,C  23)          116.6813         0.403388   
     54. A(O   0,C   1,C   2)          123.2156         0.438975   
     55. A(O   0,C   1,C  23)          120.1031         0.435681   
     56. A(C   1,C   2,C   3)          122.7666         0.386380   
     57. A(C   1,C   2,C  12)          118.7789         0.412368   
     58. A(C   3,C   2,C  12)          118.4546         0.391996   
     59. A(C   2,C   3,N   4)          127.4368         0.406959   
     60. A(C   2,C   3,S  11)          120.8782         0.397867   
     61. A(N   4,C   3,S  11)          111.6850         0.441445   
     62. A(C   3,N   4,C   5)          112.8428         0.436142   
     63. A(C   6,C   5,C  10)          118.8469         0.430043   
     64. A(N   4,C   5,C  10)          115.2368         0.428495   
     65. A(N   4,C   5,C   6)          125.9163         0.422657   
     66. A(C   5,C   6,H  26)          118.6441         0.350059   
     67. A(C   7,C   6,H  26)          121.4304         0.352479   
     68. A(C   5,C   6,C   7)          119.9255         0.427284   
     69. A(C   6,C   7,C   8)          120.2737         0.432425   
     70. A(C   8,C   7,H  27)          120.3145         0.353834   
     71. A(C   6,C   7,H  27)          119.4118         0.352287   
     72. A(C   7,C   8,H  28)          119.7080         0.353699   
     73. A(C   9,C   8,H  28)          119.5172         0.351994   
     74. A(C   7,C   8,C   9)          120.7748         0.432217   
     75. A(C  10,C   9,H  29)          120.7670         0.351020   
     76. A(C   8,C   9,H  29)          120.9693         0.352498   
     77. A(C   8,C   9,C  10)          118.2637         0.428095   
     78. A(C   5,C  10,C   9)          121.9155         0.431067   
     79. A(C   9,C  10,S  11)          129.4026         0.438914   
     80. A(C   5,C  10,S  11)          108.6820         0.443971   
     81. A(C   3,S  11,C  10)           91.5534         0.441588   
     82. A(C   2,C  12,H  30)          120.0311         0.348037   
     83. A(C   2,C  12,C  13)          123.5018         0.424523   
     84. A(C  13,C  12,H  30)          116.4671         0.352793   
     85. A(C  12,C  13,C  14)          120.9148         0.428857   
     86. A(C  14,C  13,C  24)          119.9756         0.428310   
     87. A(C  12,C  13,C  24)          119.1096         0.430134   
     88. A(C  15,C  14,H  31)          118.8660         0.353014   
     89. A(C  13,C  14,H  31)          120.1032         0.350822   
     90. A(C  13,C  14,C  15)          121.0308         0.429871   
     91. A(C  16,C  15,H  32)          120.7100         0.352527   
     92. A(C  14,C  15,H  32)          118.9676         0.353207   
     93. A(C  14,C  15,C  16)          120.3224         0.431841   
     94. A(C  15,C  16,C  17)          121.0568         0.429209   
     95. A(C  17,C  16,C  25)          119.7812         0.423966   
     96. A(C  15,C  16,C  25)          119.1619         0.425689   
     97. A(C  18,C  17,H  33)          119.0256         0.353332   
     98. A(C  16,C  17,H  33)          120.3465         0.351053   
     99. A(C  16,C  17,C  18)          120.6279         0.430411   
    100. A(C  17,C  18,C  19)          119.8604         0.433440   
    101. A(C  19,C  18,H  34)          119.9938         0.353606   
    102. A(C  17,C  18,H  34)          120.1459         0.353560   
    103. A(C  18,C  19,C  20)          120.6277         0.430496   
    104. A(H  35,C  19,N  40)           28.7403         0.091097   
    105. A(C  20,C  19,N  40)          115.8112         0.091710   
    106. A(C  18,C  19,N  40)          115.6626         0.091734   
    107. A(C  20,C  19,H  35)          120.1133         0.351020   
    108. A(C  18,C  19,H  35)          119.2590         0.353325   
    109. A(C  19,C  20,C  21)          121.2254         0.430451   
    110. A(C  21,C  20,C  25)          118.8670         0.428277   
    111. A(C  19,C  20,C  25)          119.9075         0.425363   
    112. A(C  20,C  21,C  22)          120.2847         0.431993   
    113. A(C  22,C  21,H  36)          118.3869         0.352534   
    114. A(C  20,C  21,H  36)          121.3284         0.353622   
    115. A(C  23,C  22,H  37)          118.3415         0.347832   
    116. A(C  21,C  22,H  37)          118.3073         0.351524   
    117. A(C  21,C  22,C  23)          123.3513         0.425779   
    118. A(C  22,C  23,C  24)          115.7296         0.420089   
    119. A(C   1,C  23,C  24)          122.4004         0.409647   
    120. A(C   1,C  23,C  22)          121.8700         0.410571   
    121. A(C  23,C  24,C  25)          121.5417         0.417053   
    122. A(C  13,C  24,C  25)          118.9302         0.422202   
    123. A(C  13,C  24,C  23)          119.5280         0.424321   
    124. A(C  20,C  25,C  24)          120.2257         0.419075   
    125. A(C  16,C  25,C  24)          120.5790         0.417729   
    126. A(C  16,C  25,C  20)          119.1953         0.421858   
    127. A(H  42,C  38,H  43)          108.0977         0.289488   
    128. A(H  41,C  38,H  43)          108.0976         0.289488   
    129. A(C  39,C  38,H  43)          110.8121         0.337190   
    130. A(H  41,C  38,H  42)          108.0977         0.289488   
    131. A(C  39,C  38,H  42)          110.8122         0.337190   
    132. A(C  39,C  38,H  41)          110.8121         0.337190   
    133. L(C  38,C  39,N  40,C  19, 2) 180.0000         0.470937   
    134. L(C  38,C  39,N  40,C  19, 1) 180.0000         0.470937   
    135. A(C  19,N  40,C  39)          129.3226         0.092209   
    136. D(C   3,C   2,C   1,O   0)     -0.0062         0.018109   
    137. D(C  12,C   2,C   1,C  23)     -0.0041         0.018109   
    138. D(C   3,C   2,C   1,C  23)    179.9970         0.018109   
    139. D(C  12,C   2,C   1,O   0)    179.9927         0.018109   
    140. D(S  11,C   3,C   2,C  12)     -0.0351         0.010321   
    141. D(N   4,C   3,C   2,C   1)     -0.0380         0.010321   
    142. D(S  11,C   3,C   2,C   1)    179.9638         0.010321   
    143. D(N   4,C   3,C   2,C  12)    179.9631         0.010321   
    144. D(C   5,N   4,C   3,C   2)    179.9969         0.038849   
    145. D(C   5,N   4,C   3,S  11)     -0.0047         0.038849   
    146. D(C   6,C   5,N   4,C   3)   -179.9922         0.025465   
    147. D(C  10,C   5,N   4,C   3)      0.0075         0.025465   
    148. D(H  26,C   6,C   5,N   4)      0.0040         0.023231   
    149. D(C   7,C   6,C   5,C  10)      0.0027         0.023231   
    150. D(C   7,C   6,C   5,N   4)   -179.9975         0.023231   
    151. D(H  26,C   6,C   5,C  10)   -179.9958         0.023231   
    152. D(H  27,C   7,C   6,H  26)     -0.0016         0.025310   
    153. D(H  27,C   7,C   6,C   5)    179.9999         0.025310   
    154. D(C   8,C   7,C   6,H  26)   -179.9984         0.025310   
    155. D(C   8,C   7,C   6,C   5)      0.0032         0.025310   
    156. D(H  28,C   8,C   7,H  27)      0.0008         0.026736   
    157. D(H  28,C   8,C   7,C   6)    179.9976         0.026736   
    158. D(C   9,C   8,C   7,H  27)    179.9980         0.026736   
    159. D(C   9,C   8,C   7,C   6)     -0.0053         0.026736   
    160. D(H  29,C   9,C   8,C   7)   -179.9976         0.025168   
    161. D(H  29,C   9,C   8,H  28)     -0.0005         0.025168   
    162. D(C  10,C   9,C   8,H  28)    179.9986         0.025168   
    163. D(C  10,C   9,C   8,C   7)      0.0014         0.025168   
    164. D(S  11,C  10,C   5,N   4)     -0.0066         0.027310   
    165. D(C   9,C  10,C   5,C   6)     -0.0067         0.027310   
    166. D(C   9,C  10,C   5,N   4)    179.9935         0.027310   
    167. D(S  11,C  10,C   9,H  29)      0.0039         0.023886   
    168. D(S  11,C  10,C   9,C   8)   -179.9952         0.023886   
    169. D(C   5,C  10,C   9,H  29)   -179.9963         0.023886   
    170. D(C   5,C  10,C   9,C   8)      0.0047         0.023886   
    171. D(S  11,C  10,C   5,C   6)    179.9932         0.027310   
    172. D(C   3,S  11,C  10,C   9)   -179.9970         0.005430   
    173. D(C   3,S  11,C  10,C   5)      0.0032         0.005430   
    174. D(C  10,S  11,C   3,N   4)      0.0008         0.004493   
    175. D(C  10,S  11,C   3,C   2)    179.9993         0.004493   
    176. D(H  30,C  12,C   2,C   3)     -0.0065         0.021465   
    177. D(H  30,C  12,C   2,C   1)    179.9946         0.021465   
    178. D(C  13,C  12,C   2,C   3)    179.9982         0.021465   
    179. D(C  13,C  12,C   2,C   1)     -0.0007         0.021465   
    180. D(C  24,C  13,C  12,H  30)   -179.9906         0.025402   
    181. D(C  24,C  13,C  12,C   2)      0.0048         0.025402   
    182. D(C  14,C  13,C  12,H  30)      0.0071         0.025402   
    183. D(C  14,C  13,C  12,C   2)   -179.9975         0.025402   
    184. D(H  31,C  14,C  13,C  24)   -179.9990         0.024165   
    185. D(H  31,C  14,C  13,C  12)      0.0033         0.024165   
    186. D(C  15,C  14,C  13,C  24)      0.0000         0.024165   
    187. D(C  15,C  14,C  13,C  12)   -179.9977         0.024165   
    188. D(H  32,C  15,C  14,H  31)      0.0017         0.026119   
    189. D(H  32,C  15,C  14,C  13)   -179.9973         0.026119   
    190. D(C  16,C  15,C  14,H  31)    179.9972         0.026119   
    191. D(C  16,C  15,C  14,C  13)     -0.0019         0.026119   
    192. D(C  25,C  16,C  15,H  32)    179.9986         0.025498   
    193. D(C  25,C  16,C  15,C  14)      0.0032         0.025498   
    194. D(C  17,C  16,C  15,H  32)     -0.0031         0.025498   
    195. D(C  17,C  16,C  15,C  14)   -179.9984         0.025498   
    196. D(H  33,C  17,C  16,C  15)     -0.0009         0.024307   
    197. D(C  18,C  17,C  16,C  25)      0.0035         0.024307   
    198. D(C  18,C  17,C  16,C  15)   -179.9948         0.024307   
    199. D(H  33,C  17,C  16,C  25)    179.9974         0.024307   
    200. D(H  34,C  18,C  17,H  33)      0.0068         0.026353   
    201. D(H  34,C  18,C  17,C  16)   -179.9992         0.026353   
    202. D(C  19,C  18,C  17,H  33)   -179.9977         0.026353   
    203. D(C  19,C  18,C  17,C  16)     -0.0037         0.026353   
    204. D(N  40,C  19,C  18,H  34)     32.2360         0.028682   
    205. D(N  40,C  19,C  18,C  17)   -147.7595         0.028682   
    206. D(H  35,C  19,C  18,H  34)     -0.0014         0.028682   
    207. D(H  35,C  19,C  18,C  17)   -179.9969         0.028682   
    208. D(C  20,C  19,C  18,H  34)    179.9968         0.028682   
    209. D(C  20,C  19,C  18,C  17)      0.0013         0.028682   
    210. D(C  25,C  20,C  19,N  40)    147.7169         0.026421   
    211. D(C  25,C  20,C  19,H  35)    179.9995         0.026421   
    212. D(C  25,C  20,C  19,C  18)      0.0013         0.026421   
    213. D(C  21,C  20,C  19,N  40)    -32.2834         0.026421   
    214. D(C  21,C  20,C  19,H  35)     -0.0008         0.026421   
    215. D(C  21,C  20,C  19,C  18)   -179.9989         0.026421   
    216. D(H  36,C  21,C  20,C  25)    179.9982         0.026363   
    217. D(H  36,C  21,C  20,C  19)     -0.0015         0.026363   
    218. D(C  22,C  21,C  20,C  25)     -0.0016         0.026363   
    219. D(C  22,C  21,C  20,C  19)    179.9987         0.026363   
    220. D(H  37,C  22,C  21,H  36)     -0.0007         0.025367   
    221. D(H  37,C  22,C  21,C  20)    179.9991         0.025367   
    222. D(C  23,C  22,C  21,H  36)   -179.9972         0.025367   
    223. D(C  23,C  22,C  21,C  20)      0.0026         0.025367   
    224. D(C  24,C  23,C  22,H  37)   -179.9974         0.022245   
    225. D(C  24,C  23,C  22,C  21)     -0.0009         0.022245   
    226. D(C   1,C  23,C  22,H  37)      0.0040         0.022245   
    227. D(C   1,C  23,C  22,C  21)   -179.9995         0.022245   
    228. D(C  24,C  23,C   1,C   2)      0.0052         0.016639   
    229. D(C  24,C  23,C   1,O   0)   -179.9918         0.016639   
    230. D(C  22,C  23,C   1,C   2)   -179.9964         0.016639   
    231. D(C  22,C  23,C   1,O   0)      0.0067         0.016639   
    232. D(C  25,C  24,C  23,C  22)     -0.0017         0.021665   
    233. D(C  25,C  24,C  23,C   1)    179.9969         0.021665   
    234. D(C  13,C  24,C  23,C  22)   -179.9998         0.021665   
    235. D(C  13,C  24,C  23,C   1)     -0.0013         0.021665   
    236. D(C  25,C  24,C  13,C  14)      0.0004         0.025023   
    237. D(C  25,C  24,C  13,C  12)    179.9981         0.025023   
    238. D(C  23,C  24,C  13,C  14)    179.9985         0.025023   
    239. D(C  23,C  24,C  13,C  12)     -0.0037         0.025023   
    240. D(C  20,C  25,C  24,C  23)      0.0026         0.020443   
    241. D(C  20,C  25,C  24,C  13)   -179.9992         0.020443   
    242. D(C  16,C  25,C  24,C  23)   -179.9971         0.020443   
    243. D(C  16,C  25,C  24,C  13)      0.0011         0.020443   
    244. D(C  24,C  25,C  20,C  21)     -0.0009         0.022926   
    245. D(C  24,C  25,C  20,C  19)    179.9988         0.022926   
    246. D(C  16,C  25,C  20,C  21)    179.9988         0.022926   
    247. D(C  16,C  25,C  20,C  19)     -0.0015         0.022926   
    248. D(C  24,C  25,C  16,C  17)    179.9988         0.022079   
    249. D(C  24,C  25,C  16,C  15)     -0.0029         0.022079   
    250. D(C  20,C  25,C  16,C  17)     -0.0009         0.022079   
    251. D(C  20,C  25,C  16,C  15)    179.9975         0.022079   
    252. D(C  19,N  40,C  38,H  43)   -103.3581         0.001503   
    253. D(C  19,N  40,C  38,H  42)    136.6419         0.001503   
    254. D(C  19,N  40,C  38,H  41)     16.6419         0.001503   
    255. D(C  39,N  40,C  19,H  35)     79.2508         0.001500   
    256. D(C  39,N  40,C  19,C  20)   -174.6628         0.001500   
    257. D(C  39,N  40,C  19,C  18)    -25.3205         0.001500   
    -----------------------------------------------------------------

Number of atoms                         .... 44
Number of degrees of freedom            .... 257

         *************************************************************
         *                GEOMETRY OPTIMIZATION CYCLE   1            *
         *************************************************************
---------------------------------
CARTESIAN COORDINATES (ANGSTROEM)
---------------------------------
  O     0.728670    0.858955   -2.365735
  C     0.157515    0.470896   -1.282184
  C     0.885928   -0.004226   -0.131449
  C     2.403773   -0.089624   -0.095893
  N     3.249834    0.237849   -1.057457
  C     4.563620    0.040190   -0.702720
  C     5.686956    0.297452   -1.514417
  C     6.973150    0.049393   -1.024587
  C     7.149483   -0.450845    0.261795
  C     6.048901   -0.713503    1.084917
  C     4.762499   -0.458781    0.577910
  S     3.236626   -0.672718    1.326545
  C     0.158373   -0.410109    1.018354
  C    -1.236797   -0.375601    1.100647
  C    -1.901340   -0.790485    2.266315
  C    -3.292802   -0.757125    2.351013
  C    -4.054916   -0.306971    1.269508
  C    -5.456380   -0.266899    1.338004
  C    -6.207432    0.183450    0.254317
  C    -5.565124    0.598831   -0.909977
  C    -4.164980    0.568625   -1.003934
  C    -3.509750    0.981122   -2.162229
  C    -2.113941    0.942814   -2.234414
  C    -1.291847    0.497215   -1.172112
  C    -1.972852    0.080392    0.000566
  C    -3.396047    0.113956    0.088671
  H     5.527696    0.687525   -2.514892
  H     7.833068    0.250687   -1.657350
  H     8.153395   -0.640336    0.633219
  H     6.182720   -1.103463    2.088274
  H     0.685534   -0.770814    1.894917
  H    -1.331790   -1.144955    3.121842
  H    -3.772055   -1.085815    3.268802
  H    -5.971488   -0.587788    2.239667
  H    -7.291175    0.211181    0.315825
  H    -6.160694    0.948438   -1.749557
  H    -4.061650    1.337997   -3.026287
  H    -1.634680    1.273089   -3.156273
  C   -11.362863    6.504607   -4.600140
  C    -9.948510    6.135663   -4.573982
  N    -8.826011    5.842851   -4.553222
  H   -11.895791    6.061919   -3.753419
  H   -11.482307    7.590786   -4.546552
  H   -11.838704    6.155419   -5.521316

----------------------------
CARTESIAN COORDINATES (A.U.)
----------------------------
  NO LB    ZA    FRAG    MASS        X           Y           Z
   0 O   8.0000    0    15.999    1.376986    1.623190   -4.470591
   1 C   6.0000    0    12.011    0.297660    0.889865   -2.422976
   2 C   6.0000    0    12.011    1.674161   -0.007985   -0.248403
   3 C   6.0000    0    12.011    4.542473   -0.169364   -0.181212
   4 N   7.0000    0    14.007    6.141297    0.449470   -1.998304
   5 C   6.0000    0    12.011    8.623992    0.075948   -1.327949
   6 C   6.0000    0    12.011   10.746789    0.562102   -2.861834
   7 C   6.0000    0    12.011   13.177344    0.093339   -1.936189
   8 C   6.0000    0    12.011   13.510565   -0.851973    0.494721
   9 C   6.0000    0    12.011   11.430767   -1.348326    2.050195
  10 C   6.0000    0    12.011    8.999820   -0.866970    1.092092
  11 S  16.0000    0    32.060    6.116338   -1.271252    2.506807
  12 C   6.0000    0    12.011    0.299282   -0.774993    1.924409
  13 C   6.0000    0    12.011   -2.337208   -0.709783    2.079921
  14 C   6.0000    0    12.011   -3.593011   -1.493800    4.282715
  15 C   6.0000    0    12.011   -6.222495   -1.430760    4.442771
  16 C   6.0000    0    12.011   -7.662681   -0.580092    2.399023
  17 C   6.0000    0    12.011  -10.311064   -0.504367    2.528461
  18 C   6.0000    0    12.011  -11.730347    0.346670    0.480590
  19 C   6.0000    0    12.011  -10.516560    1.131627   -1.719607
  20 C   6.0000    0    12.011   -7.870672    1.074545   -1.897160
  21 C   6.0000    0    12.011   -6.632466    1.854051   -4.086020
  22 C   6.0000    0    12.011   -3.994770    1.781660   -4.222431
  23 C   6.0000    0    12.011   -2.441238    0.939600   -2.214971
  24 C   6.0000    0    12.011   -3.728151    0.151919    0.001070
  25 C   6.0000    0    12.011   -6.417599    0.215346    0.167565
  26 H   1.0000    0     1.008   10.445831    1.299234   -4.752457
  27 H   1.0000    0     1.008   14.802354    0.473730   -3.131939
  28 H   1.0000    0     1.008   15.407684   -1.210059    1.196611
  29 H   1.0000    0     1.008   11.683648   -2.085244    3.946265
  30 H   1.0000    0     1.008    1.295471   -1.456628    3.580875
  31 H   1.0000    0     1.008   -2.516719   -2.163650    5.899427
  32 H   1.0000    0     1.008   -7.128150   -2.051893    6.177140
  33 H   1.0000    0     1.008  -11.284477   -1.110759    4.232357
  34 H   1.0000    0     1.008  -13.778324    0.399075    0.596823
  35 H   1.0000    0     1.008  -11.642025    1.792288   -3.306183
  36 H   1.0000    0     1.008   -7.675406    2.528448   -5.718853
  37 H   1.0000    0     1.008   -3.089098    2.405790   -5.964491
  38 C   6.0000    0    12.011  -21.472699   12.291926   -8.693005
  39 C   6.0000    0    12.011  -18.799960   11.594723   -8.643574
  40 N   7.0000    0    14.007  -16.678743   11.041388   -8.604342
  41 H   1.0000    0     1.008  -22.479788   11.455366   -7.092933
  42 H   1.0000    0     1.008  -21.698416   14.344507   -8.591738
  43 H   1.0000    0     1.008  -22.371909   11.632056  -10.433776

      -----------------------------------------------------------      
     |                   =====================                   |     
     |                           x T B                           |     
     |                   =====================                   |     
     |                         S. Grimme                         |     
     |          Mulliken Center for Theoretical Chemistry        |     
     |                    University of Bonn                     |     
      -----------------------------------------------------------      

   * xtb version 6.6.1 (8d0f1dd) compiled by 'stahn@M-Bot' on 2023-08-01

   xtb is free software: you can redistribute it and/or modify it under
   the terms of the GNU Lesser General Public License as published by
   the Free Software Foundation, either version 3 of the License, or
   (at your option) any later version.
   
   xtb is distributed in the hope that it will be useful,
   but WITHOUT ANY WARRANTY; without even the implied warranty of
   MERCHANTABILITY or FITNESS FOR A PARTICULAR PURPOSE.  See the
   GNU Lesser General Public License for more details.
   
   Cite this work as:
   * C. Bannwarth, E. Caldeweyher, S. Ehlert, A. Hansen, P. Pracht,
     J. Seibert, S. Spicher, S. Grimme, WIREs Comput. Mol. Sci., 2020, 11,
     e01493. DOI: 10.1002/wcms.1493
   
   for GFN2-xTB:
   * C. Bannwarth, S. Ehlert and S. Grimme., J. Chem. Theory Comput., 2019,
     15, 1652-1671. DOI: 10.1021/acs.jctc.8b01176
   for GFN1-xTB:
   * S. Grimme, C. Bannwarth, P. Shushkov, J. Chem. Theory Comput., 2017,
     13, 1989-2009. DOI: 10.1021/acs.jctc.7b00118
   for GFN0-xTB:
   * P. Pracht, E. Caldeweyher, S. Ehlert, S. Grimme, ChemRxiv, 2019, preprint.
     DOI: 10.26434/chemrxiv.8326202.v1
   for GFN-FF:
   * S. Spicher and S. Grimme, Angew. Chem. Int. Ed., 2020, 59, 15665-15673.
     DOI: 10.1002/anie.202004239
   
   for ALPB and GBSA implicit solvation:
   * S. Ehlert, M. Stahn, S. Spicher, S. Grimme, J. Chem. Theory Comput.,
     2021, 17, 4250-4261. DOI: 10.1021/acs.jctc.1c00471
   
   for DFT-D4:
   * E. Caldeweyher, C. Bannwarth and S. Grimme, J. Chem. Phys., 2017,
     147, 034112. DOI: 10.1063/1.4993215
   * E. Caldeweyher, S. Ehlert, A. Hansen, H. Neugebauer, S. Spicher,
     C. Bannwarth and S. Grimme, J. Chem. Phys., 2019, 150, 154122.
     DOI: 10.1063/1.5090222
   * E. Caldeweyher, J.-M. Mewes, S. Ehlert and S. Grimme, Phys. Chem. Chem. Phys.
     2020, 22, 8499-8512. DOI: 10.1039/D0CP00502A
   
   for sTDA-xTB:
   * S. Grimme and C. Bannwarth, J. Chem. Phys., 2016, 145, 054103.
     DOI: 10.1063/1.4959605
   
   in the mass-spec context:
   * V. Asgeirsson, C. Bauer and S. Grimme, Chem. Sci., 2017, 8, 4879.
     DOI: 10.1039/c7sc00601b
   * J. Koopman and S. Grimme, ACS Omega 2019, 4, 12, 15120-15133.
     DOI: 10.1021/acsomega.9b02011
   
   for metadynamics refer to:
   * S. Grimme, J. Chem. Theory Comput., 2019, 155, 2847-2862
     DOI: 10.1021/acs.jctc.9b00143
   
   for SPH calculations refer to:
   * S. Spicher and S. Grimme, J. Chem. Theory Comput., 2021, 17, 1701-1714
     DOI: 10.1021/acs.jctc.0c01306
   
   with help from (in alphabetical order)
   P. Atkinson, C. Bannwarth, F. Bohle, G. Brandenburg, E. Caldeweyher
   M. Checinski, S. Dohm, S. Ehlert, S. Ehrlich, I. Gerasimov, C. Hölzer
   A. Katbashev, J. Koopman, C. Lavigne, S. Lehtola, F. März, M. Müller,
   F. Musil, H. Neugebauer, J. Pisarek, C. Plett, P. Pracht, F. Pultar,
   J. Seibert, P. Shushkov, S. Spicher, M. Stahn, M. Steiner, T. Strunk,
   J. Stückrath, T. Rose, and J. Unsleber
   
 * started run on 2025/01/14 at 21:20:24.819     

           -------------------------------------------------
          |                Calculation Setup                |
           -------------------------------------------------

          program call               : /home/jang/cal_tmp/10_orca/orca_5_0_4_linux_x86-64_shared_openmpi411/otool_xtb /home/jang/cal_tmp/10_orca/Gen_chromophore/Gen_molecular_pairs_cal/mol_4_5.xyz/input_XTB.xyz --grad -c 0 -u 0 -P 4 --namespace /home/jang/cal_tmp/10_orca/Gen_chromophore/Gen_molecular_pairs_cal/mol_4_5.xyz/input --input /home/jang/cal_tmp/10_orca/Gen_chromophore/Gen_molecular_pairs_cal/mol_4_5.xyz/input_XTB.input.tmp --acc 1.000000
          hostname                   : node02
          calculation namespace      : /home/jang/cal_tmp/10_orca/Gen_chromophore/Gen_molecular_pairs_cal/mol_4_5.xyz/input
          coordinate file            : /home/jang/cal_tmp/10_orca/Gen_chromophore/Gen_molecular_pairs_cal/mol_4_5.xyz/input_XTB.xyz
          omp threads                :                     4

   ID    Z sym.   atoms
    1    8 O      1
    2    6 C      2-4, 6-11, 13-26, 39, 40
    3    7 N      5, 41
    4   16 S      12
    5    1 H      27-38, 42-44

molecular fragmentation (1/2 indicates fragments):
11111111111111111111111111111111111111222222
# atoms in fragment 1/2:    38     6
 fragment masses (1/2) :      350.41       41.05
CMA distance (Bohr)    :  24.389
constraining FC (au)   :  0.0500

           -------------------------------------------------
          |                 G F N 2 - x T B                 |
           -------------------------------------------------

        Reference                      10.1021/acs.jctc.8b01176
      * Hamiltonian:
        H0-scaling (s, p, d)           1.850000    2.230000    2.230000
        zeta-weighting                 0.500000
      * Dispersion:
        s8                             2.700000
        a1                             0.520000
        a2                             5.000000
        s9                             5.000000
      * Repulsion:
        kExp                           1.500000    1.000000
        rExp                           1.000000
      * Coulomb:
        alpha                          2.000000
        third order                    shell-resolved
        anisotropic                    true
        a3                             3.000000
        a5                             4.000000
        cn-shift                       1.200000
        cn-exp                         4.000000
        max-rad                        5.000000


          ...................................................
          :                      SETUP                      :
          :.................................................:
          :  # basis functions                 137          :
          :  # atomic orbitals                 136          :
          :  # shells                           74          :
          :  # electrons                       137          :
          :  max. iterations                   250          :
          :  Hamiltonian                  GFN2-xTB          :
          :  restarted?                      false          :
          :  GBSA solvation                  false          :
          :  PC potential                    false          :
          :  electronic temp.          300.0000000     K    :
          :  accuracy                    1.0000000          :
          :  -> integral cutoff          0.2500000E+02      :
          :  -> integral neglect         0.1000000E-07      :
          :  -> SCF convergence          0.1000000E-05 Eh   :
          :  -> wf. convergence          0.1000000E-03 e    :
          :  Broyden damping             0.4000000          :
          ...................................................

 iter      E             dE          RMSdq      gap      omega  full diag
   1    -75.4272505 -0.754273E+02  0.525E+00    1.87       0.0  T
   2    -75.4452325 -0.179820E-01  0.295E+00    1.58       1.0  T
   3    -75.2751382  0.170094E+00  0.235E+00    1.51       1.0  T
   4    -75.5002007 -0.225062E+00  0.638E-01    1.72       1.0  T
   5    -75.5122855 -0.120847E-01  0.221E-01    1.70       1.0  T
   6    -75.5125962 -0.310749E-03  0.136E-01    1.70       1.0  T
   7    -75.5128861 -0.289925E-03  0.844E-02    1.69       1.0  T
   8    -75.5131216 -0.235433E-03  0.245E-02    1.70       1.0  T
   9    -75.5131268 -0.518479E-05  0.126E-02    1.70       1.2  T
  10    -75.5131318 -0.500681E-05  0.420E-03    1.70       3.6  T
  11    -75.5131320 -0.229433E-06  0.228E-03    1.70       6.6  T
  12    -75.5131321 -0.901501E-07  0.112E-03    1.70      13.4  T
  13    -75.5131321 -0.212678E-07  0.540E-04    1.70      27.9  T
  14    -75.5131321 -0.441041E-08  0.208E-04    1.70      72.3  T

   *** convergence criteria satisfied after 14 iterations ***

         #    Occupation            Energy/Eh            Energy/eV
      -------------------------------------------------------------
         1        2.0000           -0.7314379             -19.9034
       ...           ...                  ...                  ...
        63        2.0000           -0.4172818             -11.3548
        64        2.0000           -0.4137090             -11.2576
        65        2.0000           -0.3881049             -10.5609
        66        2.0000           -0.3847948             -10.4708
        67        2.0000           -0.3831838             -10.4270
        68        1.9998           -0.3720968             -10.1253
        69        1.0002           -0.3558736              -9.6838 (HOMO)
        70                         -0.2932882              -7.9808 (LUMO)
        71                         -0.2713603              -7.3841
        72                         -0.2465712              -6.7095
        73                         -0.2436292              -6.6295
        74                         -0.2323643              -6.3230
       ...                                ...                  ...
       136                          1.0393911              28.2833
      -------------------------------------------------------------
                  HL-Gap            0.0625854 Eh            1.7030 eV
             Fermi-level           -0.3442831 Eh           -9.3684 eV

 SCC (total)                   0 d,  0 h,  0 min,  0.122 sec
 SCC setup                      ...        0 min,  0.001 sec (  0.584%)
 Dispersion                     ...        0 min,  0.002 sec (  1.427%)
 classical contributions        ...        0 min,  0.000 sec (  0.081%)
 integral evaluation            ...        0 min,  0.021 sec ( 17.325%)
 iterations                     ...        0 min,  0.086 sec ( 70.122%)
 molecular gradient             ...        0 min,  0.012 sec (  9.845%)
 printout                       ...        0 min,  0.001 sec (  0.532%)

         :::::::::::::::::::::::::::::::::::::::::::::::::::::
         ::                     SUMMARY                     ::
         :::::::::::::::::::::::::::::::::::::::::::::::::::::
         :: total energy             -74.278596518517 Eh    ::
         :: gradient norm              0.162816209300 Eh/a0 ::
         :: HOMO-LUMO gap              1.703034839667 eV    ::
         ::.................................................::
         :: SCC energy               -75.513132117572 Eh    ::
         :: -> isotropic ES            0.050703485902 Eh    ::
         :: -> anisotropic ES          0.005983025461 Eh    ::
         :: -> anisotropic XC          0.054635709334 Eh    ::
         :: -> dispersion             -0.053590748355 Eh    ::
         :: repulsion energy           1.235122210777 Eh    ::
         :: add. restraining           0.000000000000 Eh    ::
         :: total charge               0.000000000000 e     ::
         :::::::::::::::::::::::::::::::::::::::::::::::::::::


Property printout bound to 'properties.out'

           -------------------------------------------------
          | TOTAL ENERGY              -74.278596518517 Eh   |
          | GRADIENT NORM               0.162816209300 Eh/α |
          | HOMO-LUMO GAP               1.703034839667 eV   |
           -------------------------------------------------

------------------------------------------------------------------------
 * finished run on 2025/01/14 at 21:20:25.638     
------------------------------------------------------------------------
 total:
 * wall-time:     0 d,  0 h,  0 min,  0.818 sec
 *  cpu-time:     0 d,  0 h,  0 min,  1.527 sec
 * ratio c/w:     1.867 speedup
 SCF:
 * wall-time:     0 d,  0 h,  0 min,  0.122 sec
 *  cpu-time:     0 d,  0 h,  0 min,  0.475 sec
 * ratio c/w:     3.878 speedup


-------------------------   --------------------
FINAL SINGLE POINT ENERGY       -74.278596518520
-------------------------   --------------------

------------------------------------------------------------------------------
                         ORCA GEOMETRY RELAXATION STEP
------------------------------------------------------------------------------

Reading the OPT-File                    .... done
Getting information on internals        .... done
Copying old internal coords+grads       .... done
Making the new internal coordinates     .... (new redundants).... done
Validating the new internal coordinates .... (new redundants).... done
Calculating the B-matrix                .... done
Calculating the G,G- and P matrices     .... done
Transforming gradient to internals      .... done
Projecting the internal gradient        .... done
Number of atoms                         ....  44
Number of internal coordinates          .... 257
Current Energy                          ....   -74.278596519 Eh
Current gradient norm                   ....     0.162816209 Eh/bohr
Maximum allowed component of the step   ....  0.300
Current trust radius                    ....  0.300
Evaluating the initial hessian          ....  (Almloef) done
Projecting the Hessian                  .... done
Forming the augmented Hessian           .... done
Diagonalizing the augmented Hessian     .... done
Last element of RFO vector              ....  0.972728263
Lowest eigenvalues of augmented Hessian:
 -0.031617505  0.000000075  0.001493965  0.001502870  0.006205732
Length of the computed step             ....  0.238450643
The final length of the internal step   ....  0.238450643
Converting the step to cartesian space:
 Initial RMS(Int)=    0.0148741424
Transforming coordinates:
 Iter   0:  RMS(Cart)=    0.1044720995 RMS(Int)=    1.7527293378
 Iter   1:  RMS(Cart)=    0.0012318819 RMS(Int)=    0.8763718234
 Iter   2:  RMS(Cart)=    0.0000411962 RMS(Int)=    0.0000073390
 Iter   3:  RMS(Cart)=    0.0000012930 RMS(Int)=    0.0000003732
 Iter   4:  RMS(Cart)=    0.0000000639 RMS(Int)=    0.0000000139
done
Storing new coordinates                 .... done

                                .--------------------.
          ----------------------|Geometry convergence|-------------------------
          Item                value                   Tolerance       Converged
          ---------------------------------------------------------------------
          RMS gradient        0.0086413768            0.0001000000      NO
          MAX gradient        0.0610777031            0.0003000000      NO
          RMS step            0.0148741424            0.0020000000      NO
          MAX step            0.1270869465            0.0040000000      NO
          ........................................................
          Max(Bonds)      0.0673      Max(Angles)    2.51
          Max(Dihed)        0.19      Max(Improp)    0.00
          ---------------------------------------------------------------------

The optimization has not yet converged - more geometry cycles are needed


    ---------------------------------------------------------------------------
                         Redundant Internal Coordinates
                            (Angstroem and degrees)

        Definition                    Value    dE/dq     Step     New-Value
    ----------------------------------------------------------------------------
     1. B(C   1,O   0)                1.2849  0.061078 -0.0378    1.2471   
     2. B(C   2,C   1)                1.4424 -0.005360  0.0044    1.4468   
     3. B(C   3,C   2)                1.5207  0.053152 -0.0673    1.4534   
     4. B(N   4,C   3)                1.3220  0.037115 -0.0274    1.2946   
     5. B(C   5,N   4)                1.3751  0.021855 -0.0189    1.3562   
     6. B(C   6,C   5)                1.4096  0.014461 -0.0122    1.3974   
     7. B(C   7,C   6)                1.3985  0.020898 -0.0176    1.3808   
     8. B(C   8,C   7)                1.3914 -0.003737  0.0025    1.3939   
     9. B(C   9,C   8)                1.3992  0.018362 -0.0155    1.3837   
    10. B(C  10,C   9)                1.4060  0.019120 -0.0160    1.3900   
    11. B(C  10,C   5)                1.3887 -0.018859  0.0168    1.4055   
    12. B(S  11,C  10)                1.7130 -0.005723  0.0070    1.7200   
    13. B(S  11,C   3)                1.7484 -0.012034  0.0122    1.7606   
    14. B(C  12,C   2)                1.4199  0.040247 -0.0367    1.3832   
    15. B(C  13,C  12)                1.3980 -0.008545  0.0071    1.4052   
    16. B(C  14,C  13)                1.4045 -0.004509  0.0035    1.4080   
    17. B(C  15,C  14)                1.3944  0.021534 -0.0182    1.3762   
    18. B(C  16,C  15)                1.3975 -0.017075  0.0138    1.4114   
    19. B(C  17,C  16)                1.4037  0.000809 -0.0011    1.4026   
    20. B(C  18,C  17)                1.3933  0.005376 -0.0051    1.3882   
    21. B(C  19,C  18)                1.3931  0.009605 -0.0081    1.3849   
    22. B(C  20,C  19)                1.4036 -0.000757  0.0018    1.4054   
    23. B(C  21,C  20)                1.3932 -0.015342  0.0129    1.4061   
    24. B(C  22,C  21)                1.3982  0.022025 -0.0187    1.3795   
    25. B(C  23,C  22)                1.4152  0.011535 -0.0111    1.4042   
    26. B(C  23,C   1)                1.4538 -0.000540  0.0005    1.4543   
    27. B(C  24,C  23)                1.4187  0.008356 -0.0072    1.4115   
    28. B(C  24,C  13)                1.4000 -0.016729  0.0149    1.4149   
    29. B(C  25,C  24)                1.4263  0.014814 -0.0124    1.4139   
    30. B(C  25,C  20)                1.4113 -0.001771  0.0032    1.4145   
    31. B(C  25,C  16)                1.4162  0.000689  0.0001    1.4163   
    32. B(H  26,C   6)                1.0856  0.005012 -0.0067    1.0789   
    33. B(H  27,C   7)                1.0864  0.005254 -0.0070    1.0794   
    34. B(H  28,C   8)                1.0871  0.005070 -0.0068    1.0803   
    35. B(H  29,C   9)                1.0848  0.004561 -0.0061    1.0787   
    36. B(H  30,C  12)                1.0846  0.001810 -0.0024    1.0822   
    37. B(H  31,C  14)                1.0872  0.004688 -0.0063    1.0809   
    38. B(H  32,C  15)                1.0863  0.004376 -0.0058    1.0805   
    39. B(H  33,C  17)                1.0869  0.004607 -0.0062    1.0807   
    40. B(H  34,C  18)                1.0858  0.004408 -0.0059    1.0800   
    41. B(H  35,C  19)                1.0871  0.006165 -0.0067    1.0805   
    42. B(H  36,C  21)                1.0856  0.003293 -0.0057    1.0799   
    43. B(H  37,C  22)                1.0902  0.005989 -0.0081    1.0821   
    44. B(C  39,H  35)                7.0166  0.006682 -0.0044    7.0122   
    45. B(C  39,C  38)                1.4619  0.021005 -0.0217    1.4402   
    46. B(N  40,H  36)                6.7323 -0.001525  0.0043    6.7366   
    47. B(N  40,H  35)                6.2386 -0.005196  0.0019    6.2405   
    48. B(N  40,C  19)                7.1698  0.000068 -0.0031    7.1667   
    49. B(N  40,C  39)                1.1602  0.039446 -0.0175    1.1428   
    50. B(H  41,C  38)                1.0940  0.002933 -0.0040    1.0900   
    51. B(H  42,C  38)                1.0940  0.002974 -0.0041    1.0900   
    52. B(H  43,C  38)                1.0940  0.002951 -0.0040    1.0900   
    53. A(C   2,C   1,C  23)          116.68 -0.000946    0.03    116.72   
    54. A(O   0,C   1,C   2)          123.22  0.000501   -0.02    123.20   
    55. A(O   0,C   1,C  23)          120.10  0.000445   -0.01    120.09   
    56. A(C   1,C   2,C   3)          122.77  0.008886   -1.10    121.67   
    57. A(C   1,C   2,C  12)          118.78 -0.011198    1.30    120.07   
    58. A(C   3,C   2,C  12)          118.45  0.002312   -0.20    118.26   
    59. A(C   2,C   3,N   4)          127.44  0.014818   -1.72    125.72   
    60. A(C   2,C   3,S  11)          120.88  0.007605   -0.79    120.09   
    61. A(N   4,C   3,S  11)          111.68 -0.022423    2.51    114.19   
    62. A(C   3,N   4,C   5)          112.84  0.002817   -0.67    112.17   
    63. A(C   6,C   5,C  10)          118.85 -0.002063    0.35    119.20   
    64. A(N   4,C   5,C  10)          115.24  0.000016    0.06    115.30   
    65. A(N   4,C   5,C   6)          125.92  0.002047   -0.41    125.50   
    66. A(C   5,C   6,H  26)          118.64 -0.002999    0.38    119.02   
    67. A(C   7,C   6,H  26)          121.43 -0.002741    0.34    121.77   
    68. A(C   5,C   6,C   7)          119.93  0.005739   -0.72    119.21   
    69. A(C   6,C   7,C   8)          120.27 -0.004728    0.54    120.81   
    70. A(C   8,C   7,H  27)          120.31  0.002432   -0.28    120.04   
    71. A(C   6,C   7,H  27)          119.41  0.002296   -0.26    119.15   
    72. A(C   7,C   8,H  28)          119.71  0.000720   -0.04    119.67   
    73. A(C   9,C   8,H  28)          119.52  0.002737   -0.34    119.18   
    74. A(C   7,C   8,C   9)          120.77 -0.003457    0.38    121.15   
    75. A(C  10,C   9,H  29)          120.77 -0.000649    0.05    120.81   
    76. A(C   8,C   9,H  29)          120.97 -0.002033    0.25    121.22   
    77. A(C   8,C   9,C  10)          118.26  0.002682   -0.30    117.96   
    78. A(C   5,C  10,C   9)          121.92  0.001826   -0.24    121.67   
    79. A(C   9,C  10,S  11)          129.40 -0.000910   -0.16    129.25   
    80. A(C   5,C  10,S  11)          108.68 -0.000917    0.40    109.08   
    81. A(C   3,S  11,C  10)           91.55  0.020506   -2.30     89.25   
    82. A(C   2,C  12,H  30)          120.03  0.002329   -0.36    119.67   
    83. A(C   2,C  12,C  13)          123.50  0.003679   -0.53    122.97   
    84. A(C  13,C  12,H  30)          116.47 -0.006008    0.89    117.36   
    85. A(C  12,C  13,C  14)          120.91 -0.004606    0.44    121.36   
    86. A(C  14,C  13,C  24)          119.98  0.002700   -0.31    119.67   
    87. A(C  12,C  13,C  24)          119.11  0.001906   -0.14    118.97   
    88. A(C  15,C  14,H  31)          118.87 -0.002232    0.34    119.21   
    89. A(C  13,C  14,H  31)          120.10  0.001613   -0.23    119.87   
    90. A(C  13,C  14,C  15)          121.03  0.000619   -0.11    120.92   
    91. A(C  16,C  15,H  32)          120.71  0.003341   -0.46    120.25   
    92. A(C  14,C  15,H  32)          118.97 -0.000349    0.09    119.06   
    93. A(C  14,C  15,C  16)          120.32 -0.002992    0.37    120.69   
    94. A(C  15,C  16,C  17)          121.06 -0.005872    0.61    121.67   
    95. A(C  17,C  16,C  25)          119.78  0.005396   -0.60    119.18   
    96. A(C  15,C  16,C  25)          119.16  0.000476   -0.01    119.15   
    97. A(C  18,C  17,H  33)          119.03 -0.001434    0.25    119.28   
    98. A(C  16,C  17,H  33)          120.35  0.003362   -0.47    119.88   
    99. A(C  16,C  17,C  18)          120.63 -0.001928    0.22    120.85   
   100. A(C  17,C  18,C  19)          119.86 -0.003170    0.39    120.25   
   101. A(C  19,C  18,H  34)          119.99  0.001422   -0.17    119.82   
   102. A(C  17,C  18,H  34)          120.15  0.001748   -0.22    119.92   
   103. A(C  18,C  19,C  20)          120.63 -0.000652    0.04    120.67   
   104. A(H  35,C  19,N  40)           28.74 -0.000111   -0.05     28.69   
   105. A(C  20,C  19,N  40)          115.81  0.003201   -0.27    115.54   
   106. A(C  18,C  19,N  40)          115.66 -0.002551    0.25    115.91   
   107. A(C  20,C  19,H  35)          120.11  0.002761   -0.30    119.82   
   108. A(C  18,C  19,H  35)          119.26 -0.002109    0.26    119.51   
   109. A(C  19,C  20,C  21)          121.23 -0.006195    0.76    121.98   
   110. A(C  21,C  20,C  25)          118.87  0.001749   -0.18    118.68   
   111. A(C  19,C  20,C  25)          119.91  0.004446   -0.57    119.33   
   112. A(C  20,C  21,C  22)          120.28 -0.000234    0.15    120.44   
   113. A(C  22,C  21,H  36)          118.39 -0.002709    0.27    118.65   
   114. A(C  20,C  21,H  36)          121.33  0.002943   -0.42    120.91   
   115. A(C  23,C  22,H  37)          118.34 -0.000062   -0.02    118.32   
   116. A(C  21,C  22,H  37)          118.31 -0.005755    0.83    119.14   
   117. A(C  21,C  22,C  23)          123.35  0.005817   -0.81    122.54   
   118. A(C  22,C  23,C  24)          115.73 -0.013756    1.65    117.38   
   119. A(C   1,C  23,C  24)          122.40  0.008086   -0.89    121.51   
   120. A(C   1,C  23,C  22)          121.87  0.005670   -0.76    121.11   
   121. A(C  23,C  24,C  25)          121.54  0.004280   -0.63    120.92   
   122. A(C  13,C  24,C  25)          118.93 -0.002752    0.39    119.32   
   123. A(C  13,C  24,C  23)          119.53 -0.001528    0.23    119.76   
   124. A(C  20,C  25,C  24)          120.23  0.002144   -0.19    120.04   
   125. A(C  16,C  25,C  24)          120.58  0.001949   -0.34    120.24   
   126. A(C  16,C  25,C  20)          119.20 -0.004093    0.52    119.72   
   127. A(H  42,C  38,H  43)          108.10 -0.003728    0.62    108.71   
   128. A(H  41,C  38,H  43)          108.10 -0.003737    0.63    108.72   
   129. A(C  39,C  38,H  43)          110.81  0.003563   -0.59    110.22   
   130. A(H  41,C  38,H  42)          108.10 -0.003725    0.62    108.72   
   131. A(C  39,C  38,H  42)          110.81  0.003589   -0.60    110.21   
   132. A(C  39,C  38,H  41)          110.81  0.003522   -0.59    110.23   
   133. L(C  38,C  39,N  40,C  19, 2) 180.00 -0.000001    0.00    180.00   
   134. L(C  38,C  39,N  40,C  19, 1) 180.00 -0.000183    0.02    180.02   
   135. A(C  19,N  40,C  39)          129.32 -0.010690    0.43    129.75   
   136. D(C   3,C   2,C   1,O   0)     -0.01 -0.000004    0.01      0.01   
   137. D(C  12,C   2,C   1,C  23)     -0.00  0.000018   -0.00     -0.01   
   138. D(C   3,C   2,C   1,C  23)    180.00  0.000010   -0.00    179.99   
   139. D(C  12,C   2,C   1,O   0)    179.99  0.000004    0.02    180.01   
   140. D(S  11,C   3,C   2,C  12)     -0.04 -0.000002   -0.00     -0.04   
   141. D(N   4,C   3,C   2,C   1)     -0.04  0.000007   -0.00     -0.04   
   142. D(S  11,C   3,C   2,C   1)    179.96  0.000007   -0.00    179.96   
   143. D(N   4,C   3,C   2,C  12)    179.96 -0.000001   -0.00    179.96   
   144. D(C   5,N   4,C   3,C   2)    180.00  0.000001   -0.00    180.00   
   145. D(C   5,N   4,C   3,S  11)     -0.00  0.000002   -0.00     -0.01   
   146. D(C   6,C   5,N   4,C   3)   -179.99  0.000000    0.00   -179.99   
   147. D(C  10,C   5,N   4,C   3)      0.01  0.000000   -0.00      0.01   
   148. D(H  26,C   6,C   5,N   4)      0.00 -0.000000    0.00      0.00   
   149. D(C   7,C   6,C   5,C  10)      0.00  0.000001   -0.00      0.00   
   150. D(C   7,C   6,C   5,N   4)   -180.00  0.000001   -0.00   -180.00   
   151. D(H  26,C   6,C   5,C  10)   -180.00 -0.000000    0.00   -180.00   
   152. D(H  27,C   7,C   6,H  26)     -0.00  0.000000   -0.00     -0.00   
   153. D(H  27,C   7,C   6,C   5)    180.00 -0.000001    0.00    180.00   
   154. D(C   8,C   7,C   6,H  26)   -180.00  0.000002   -0.00   -180.00   
   155. D(C   8,C   7,C   6,C   5)      0.00  0.000001   -0.00      0.00   
   156. D(H  28,C   8,C   7,H  27)      0.00  0.000001   -0.00     -0.00   
   157. D(H  28,C   8,C   7,C   6)    180.00 -0.000001    0.00    180.00   
   158. D(C   9,C   8,C   7,H  27)    180.00  0.000001   -0.00    180.00   
   159. D(C   9,C   8,C   7,C   6)     -0.01 -0.000001    0.00     -0.00   
   160. D(H  29,C   9,C   8,C   7)   -180.00  0.000001   -0.00   -180.00   
   161. D(H  29,C   9,C   8,H  28)     -0.00  0.000000   -0.00     -0.00   
   162. D(C  10,C   9,C   8,H  28)    180.00  0.000001   -0.00    180.00   
   163. D(C  10,C   9,C   8,C   7)      0.00  0.000001   -0.00      0.00   
   164. D(S  11,C  10,C   5,N   4)     -0.01 -0.000002    0.00     -0.00   
   165. D(C   9,C  10,C   5,C   6)     -0.01 -0.000001    0.00     -0.01   
   166. D(C   9,C  10,C   5,N   4)    179.99 -0.000001    0.00    180.00   
   167. D(S  11,C  10,C   9,H  29)      0.00  0.000002   -0.00      0.00   
   168. D(S  11,C  10,C   9,C   8)   -180.00  0.000002   -0.00   -180.00   
   169. D(C   5,C  10,C   9,H  29)   -180.00  0.000001   -0.00   -180.00   
   170. D(C   5,C  10,C   9,C   8)      0.00  0.000001   -0.00      0.00   
   171. D(S  11,C  10,C   5,C   6)    179.99 -0.000002    0.00    180.00   
   172. D(C   3,S  11,C  10,C   9)   -180.00  0.000002   -0.00   -180.00   
   173. D(C   3,S  11,C  10,C   5)      0.00  0.000003   -0.00      0.00   
   174. D(C  10,S  11,C   3,N   4)      0.00 -0.000002    0.00      0.00   
   175. D(C  10,S  11,C   3,C   2)    180.00 -0.000001    0.00    180.00   
   176. D(H  30,C  12,C   2,C   3)     -0.01 -0.000008    0.01      0.00   
   177. D(H  30,C  12,C   2,C   1)    179.99 -0.000017    0.01    180.00   
   178. D(C  13,C  12,C   2,C   3)    180.00 -0.000003    0.01    180.01   
   179. D(C  13,C  12,C   2,C   1)     -0.00 -0.000011    0.01      0.01   
   180. D(C  24,C  13,C  12,H  30)   -179.99 -0.000003   -0.00   -179.99   
   181. D(C  24,C  13,C  12,C   2)      0.00 -0.000008   -0.00     -0.00   
   182. D(C  14,C  13,C  12,H  30)      0.01 -0.000010    0.00      0.01   
   183. D(C  14,C  13,C  12,C   2)   -180.00 -0.000015   -0.00   -180.00   
   184. D(H  31,C  14,C  13,C  24)   -180.00 -0.000012    0.00   -179.99   
   185. D(H  31,C  14,C  13,C  12)      0.00 -0.000004    0.00      0.01   
   186. D(C  15,C  14,C  13,C  24)      0.00  0.000008    0.00      0.00   
   187. D(C  15,C  14,C  13,C  12)   -180.00  0.000015    0.00   -180.00   
   188. D(H  32,C  15,C  14,H  31)      0.00 -0.000007    0.00      0.00   
   189. D(H  32,C  15,C  14,C  13)   -180.00 -0.000027    0.00   -180.00   
   190. D(C  16,C  15,C  14,H  31)    180.00 -0.000006    0.01    180.00   
   191. D(C  16,C  15,C  14,C  13)     -0.00 -0.000026    0.01      0.00   
   192. D(C  25,C  16,C  15,H  32)    180.00  0.000017   -0.00    179.99   
   193. D(C  25,C  16,C  15,C  14)      0.00  0.000016   -0.01     -0.01   
   194. D(C  17,C  16,C  15,H  32)     -0.00 -0.000049    0.00      0.00   
   195. D(C  17,C  16,C  15,C  14)   -180.00 -0.000049   -0.00   -180.00   
   196. D(H  33,C  17,C  16,C  15)     -0.00 -0.000057    0.01      0.01   
   197. D(C  18,C  17,C  16,C  25)      0.00 -0.000045    0.02      0.03   
   198. D(C  18,C  17,C  16,C  15)   -179.99  0.000021    0.01   -179.98   
   199. D(H  33,C  17,C  16,C  25)    180.00 -0.000123    0.02    180.01   
   200. D(H  34,C  18,C  17,H  33)      0.01 -0.000073    0.00      0.01   
   201. D(H  34,C  18,C  17,C  16)   -180.00 -0.000151   -0.00   -180.00   
   202. D(C  19,C  18,C  17,H  33)   -180.00 -0.000099    0.01   -179.98   
   203. D(C  19,C  18,C  17,C  16)     -0.00 -0.000177    0.01      0.01   
   204. D(N  40,C  19,C  18,H  34)     32.24 -0.000693    0.02     32.25   
   205. D(N  40,C  19,C  18,C  17)   -147.76 -0.000667    0.00   -147.76   
   206. D(H  35,C  19,C  18,H  34)     -0.00  0.000196   -0.00     -0.00   
   207. D(H  35,C  19,C  18,C  17)   -180.00  0.000221   -0.01   -180.01   
   208. D(C  20,C  19,C  18,H  34)    180.00  0.000297   -0.04    179.96   
   209. D(C  20,C  19,C  18,C  17)      0.00  0.000323   -0.05     -0.05   
   210. D(C  25,C  20,C  19,N  40)    147.72 -0.001006    0.16    147.88   
   211. D(C  25,C  20,C  19,H  35)    180.00 -0.000143    0.02    180.02   
   212. D(C  25,C  20,C  19,C  18)      0.00 -0.000246    0.06      0.06   
   213. D(C  21,C  20,C  19,N  40)    -32.28 -0.001152    0.19    -32.09   
   214. D(C  21,C  20,C  19,H  35)     -0.00 -0.000289    0.05      0.04   
   215. D(C  21,C  20,C  19,C  18)   -180.00 -0.000391    0.08   -179.92   
   216. D(H  36,C  21,C  20,C  25)    180.00 -0.000516    0.13    180.12   
   217. D(H  36,C  21,C  20,C  19)     -0.00 -0.000372    0.10      0.10   
   218. D(C  22,C  21,C  20,C  25)     -0.00 -0.000182    0.05      0.05   
   219. D(C  22,C  21,C  20,C  19)    180.00 -0.000037    0.03    180.03   
   220. D(H  37,C  22,C  21,H  36)     -0.00  0.000280   -0.06     -0.06   
   221. D(H  37,C  22,C  21,C  20)    180.00 -0.000045    0.01    180.01   
   222. D(C  23,C  22,C  21,H  36)   -180.00  0.000349   -0.08   -180.07   
   223. D(C  23,C  22,C  21,C  20)      0.00  0.000024   -0.01     -0.01   
   224. D(C  24,C  23,C  22,H  37)   -180.00  0.000172   -0.05   -180.05   
   225. D(C  24,C  23,C  22,C  21)     -0.00  0.000103   -0.04     -0.04   
   226. D(C   1,C  23,C  22,H  37)      0.00  0.000105   -0.04     -0.04   
   227. D(C   1,C  23,C  22,C  21)   -180.00  0.000036   -0.02   -180.02   
   228. D(C  24,C  23,C   1,C   2)      0.01 -0.000006   -0.01     -0.00   
   229. D(C  24,C  23,C   1,O   0)   -179.99  0.000007   -0.03   -180.02   
   230. D(C  22,C  23,C   1,C   2)   -180.00  0.000065   -0.02   -180.02   
   231. D(C  22,C  23,C   1,O   0)      0.01  0.000079   -0.04     -0.04   
   232. D(C  25,C  24,C  23,C  22)     -0.00 -0.000072    0.03      0.03   
   233. D(C  25,C  24,C  23,C   1)    180.00 -0.000004    0.02    180.01   
   234. D(C  13,C  24,C  23,C  22)   -180.00 -0.000080    0.03   -179.97   
   235. D(C  13,C  24,C  23,C   1)     -0.00 -0.000012    0.01      0.01   
   236. D(C  25,C  24,C  13,C  14)      0.00  0.000019   -0.01     -0.01   
   237. D(C  25,C  24,C  13,C  12)    180.00  0.000011   -0.01    179.99   
   238. D(C  23,C  24,C  13,C  14)    180.00  0.000027   -0.01    179.99   
   239. D(C  23,C  24,C  13,C  12)     -0.00  0.000019   -0.01     -0.01   
   240. D(C  20,C  25,C  24,C  23)      0.00 -0.000082    0.01      0.02   
   241. D(C  20,C  25,C  24,C  13)   -180.00 -0.000074    0.02   -179.98   
   242. D(C  16,C  25,C  24,C  23)   -180.00 -0.000036    0.01   -179.99   
   243. D(C  16,C  25,C  24,C  13)      0.00 -0.000028    0.01      0.01   
   244. D(C  24,C  25,C  20,C  21)     -0.00  0.000210   -0.06     -0.06   
   245. D(C  24,C  25,C  20,C  19)    180.00  0.000067   -0.03    179.97   
   246. D(C  16,C  25,C  20,C  21)    180.00  0.000165   -0.05    179.95   
   247. D(C  16,C  25,C  20,C  19)     -0.00  0.000023   -0.03     -0.03   
   248. D(C  24,C  25,C  16,C  17)    180.00  0.000076   -0.01    179.99   
   249. D(C  24,C  25,C  16,C  15)     -0.00  0.000011    0.00     -0.00   
   250. D(C  20,C  25,C  16,C  17)     -0.00  0.000121   -0.01     -0.01   
   251. D(C  20,C  25,C  16,C  15)    180.00  0.000056   -0.01    179.99   
   252. D(C  19,N  40,C  38,H  43)   -103.36  0.000047   -0.01   -103.37   
   253. D(C  19,N  40,C  38,H  42)    136.64 -0.000030    0.01    136.65   
   254. D(C  19,N  40,C  38,H  41)     16.64 -0.000020    0.01     16.65   
   255. D(C  39,N  40,C  19,H  35)     79.25 -0.000287    0.10     79.35   
   256. D(C  39,N  40,C  19,C  20)   -174.66 -0.000170   -0.03   -174.69   
   257. D(C  39,N  40,C  19,C  18)    -25.32 -0.000386    0.01    -25.31   
    ----------------------------------------------------------------------------

         *************************************************************
         *                GEOMETRY OPTIMIZATION CYCLE   2            *
         *************************************************************
---------------------------------
CARTESIAN COORDINATES (ANGSTROEM)
---------------------------------
  O     0.739644    0.840921   -2.283276
  C     0.173444    0.461432   -1.238966
  C     0.891407   -0.020757   -0.079095
  C     2.342758   -0.094734   -0.056522
  N     3.131927    0.244674   -1.025052
  C     4.437992    0.063412   -0.708176
  C     5.522232    0.338949   -1.545463
  C     6.803689    0.104223   -1.087732
  C     7.023095   -0.401419    0.192641
  C     5.967421   -0.682784    1.041750
  C     4.678171   -0.445867    0.579442
  S     3.174023   -0.687429    1.377982
  C     0.197441   -0.426257    1.046675
  C    -1.204760   -0.396693    1.132370
  C    -1.876876   -0.817777    2.295704
  C    -3.250731   -0.785059    2.369728
  C    -4.020240   -0.327622    1.278570
  C    -5.421202   -0.285545    1.331633
  C    -6.161243    0.167258    0.247939
  C    -5.522312    0.585965   -0.907280
  C    -4.120226    0.560373   -1.000523
  C    -3.443055    0.980532   -2.158944
  C    -2.065304    0.941279   -2.215894
  C    -1.277521    0.489890   -1.144716
  C    -1.949457    0.067120    0.022376
  C    -3.360804    0.099821    0.100336
  H     5.334608    0.729925   -2.533374
  H     7.640642    0.317392   -1.735224
  H     8.033378   -0.578137    0.531912
  H     6.135901   -1.074063    2.032770
  H     0.741046   -0.785804    1.910612
  H    -1.311161   -1.172630    3.145649
  H    -3.735400   -1.115218    3.277195
  H    -5.936083   -0.608772    2.225150
  H    -7.239390    0.193348    0.304955
  H    -6.110012    0.935979   -1.743612
  H    -3.986945    1.340604   -3.019662
  H    -1.565690    1.269821   -3.117810
  C   -11.259742    6.502089   -4.621474
  C    -9.869069    6.129659   -4.583546
  N    -8.765476    5.834461   -4.553731
  H   -11.791472    6.059484   -3.779148
  H   -11.360832    7.586055   -4.568303
  H   -11.718003    6.153145   -5.546856

----------------------------
CARTESIAN COORDINATES (A.U.)
----------------------------
  NO LB    ZA    FRAG    MASS        X           Y           Z
   0 O   8.0000    0    15.999    1.397724    1.589110   -4.314765
   1 C   6.0000    0    12.011    0.327761    0.871980   -2.341306
   2 C   6.0000    0    12.011    1.684516   -0.039225   -0.149468
   3 C   6.0000    0    12.011    4.427172   -0.179022   -0.106810
   4 N   7.0000    0    14.007    5.918484    0.462368   -1.937068
   5 C   6.0000    0    12.011    8.386589    0.119832   -1.338260
   6 C   6.0000    0    12.011   10.435506    0.640521   -2.920502
   7 C   6.0000    0    12.011   12.857109    0.196953   -2.055515
   8 C   6.0000    0    12.011   13.271727   -0.758572    0.364038
   9 C   6.0000    0    12.011   11.276792   -1.290274    1.968622
  10 C   6.0000    0    12.011    8.840462   -0.842567    1.094987
  11 S  16.0000    0    32.060    5.998033   -1.299053    2.604008
  12 C   6.0000    0    12.011    0.373109   -0.805508    1.977928
  13 C   6.0000    0    12.011   -2.276666   -0.749640    2.139868
  14 C   6.0000    0    12.011   -3.546781   -1.545374    4.338252
  15 C   6.0000    0    12.011   -6.142992   -1.483547    4.478137
  16 C   6.0000    0    12.011   -7.597153   -0.619116    2.416147
  17 C   6.0000    0    12.011  -10.244587   -0.539602    2.516421
  18 C   6.0000    0    12.011  -11.643062    0.316071    0.468536
  19 C   6.0000    0    12.011  -10.435658    1.107313   -1.714511
  20 C   6.0000    0    12.011   -7.786098    1.058952   -1.890714
  21 C   6.0000    0    12.011   -6.506430    1.852936   -4.079812
  22 C   6.0000    0    12.011   -3.902859    1.778760   -4.187433
  23 C   6.0000    0    12.011   -2.414165    0.925758   -2.163199
  24 C   6.0000    0    12.011   -3.683941    0.126838    0.042284
  25 C   6.0000    0    12.011   -6.350999    0.188634    0.189607
  26 H   1.0000    0     1.008   10.080948    1.379358   -4.787384
  27 H   1.0000    0     1.008   14.438721    0.599783   -3.279097
  28 H   1.0000    0     1.008   15.180885   -1.092520    1.005169
  29 H   1.0000    0     1.008   11.595173   -2.029684    3.841379
  30 H   1.0000    0     1.008    1.400375   -1.484954    3.610534
  31 H   1.0000    0     1.008   -2.477735   -2.215949    5.944416
  32 H   1.0000    0     1.008   -7.058883   -2.107457    6.193002
  33 H   1.0000    0     1.008  -11.217571   -1.150412    4.204925
  34 H   1.0000    0     1.008  -13.680464    0.365376    0.576281
  35 H   1.0000    0     1.008  -11.546249    1.768744   -3.294949
  36 H   1.0000    0     1.008   -7.534235    2.533374   -5.706334
  37 H   1.0000    0     1.008   -2.958726    2.399614   -5.891807
  38 C   6.0000    0    12.011  -21.277828   12.287168   -8.733321
  39 C   6.0000    0    12.011  -18.649838   11.583376   -8.661647
  40 N   7.0000    0    14.007  -16.564349   11.025533   -8.605305
  41 H   1.0000    0     1.008  -22.282653   11.450765   -7.141555
  42 H   1.0000    0     1.008  -21.468862   14.335567   -8.632842
  43 H   1.0000    0     1.008  -22.143817   11.627760  -10.482039

      -----------------------------------------------------------      
     |                   =====================                   |     
     |                           x T B                           |     
     |                   =====================                   |     
     |                         S. Grimme                         |     
     |          Mulliken Center for Theoretical Chemistry        |     
     |                    University of Bonn                     |     
      -----------------------------------------------------------      

   * xtb version 6.6.1 (8d0f1dd) compiled by 'stahn@M-Bot' on 2023-08-01

   xtb is free software: you can redistribute it and/or modify it under
   the terms of the GNU Lesser General Public License as published by
   the Free Software Foundation, either version 3 of the License, or
   (at your option) any later version.
   
   xtb is distributed in the hope that it will be useful,
   but WITHOUT ANY WARRANTY; without even the implied warranty of
   MERCHANTABILITY or FITNESS FOR A PARTICULAR PURPOSE.  See the
   GNU Lesser General Public License for more details.
   
   Cite this work as:
   * C. Bannwarth, E. Caldeweyher, S. Ehlert, A. Hansen, P. Pracht,
     J. Seibert, S. Spicher, S. Grimme, WIREs Comput. Mol. Sci., 2020, 11,
     e01493. DOI: 10.1002/wcms.1493
   
   for GFN2-xTB:
   * C. Bannwarth, S. Ehlert and S. Grimme., J. Chem. Theory Comput., 2019,
     15, 1652-1671. DOI: 10.1021/acs.jctc.8b01176
   for GFN1-xTB:
   * S. Grimme, C. Bannwarth, P. Shushkov, J. Chem. Theory Comput., 2017,
     13, 1989-2009. DOI: 10.1021/acs.jctc.7b00118
   for GFN0-xTB:
   * P. Pracht, E. Caldeweyher, S. Ehlert, S. Grimme, ChemRxiv, 2019, preprint.
     DOI: 10.26434/chemrxiv.8326202.v1
   for GFN-FF:
   * S. Spicher and S. Grimme, Angew. Chem. Int. Ed., 2020, 59, 15665-15673.
     DOI: 10.1002/anie.202004239
   
   for ALPB and GBSA implicit solvation:
   * S. Ehlert, M. Stahn, S. Spicher, S. Grimme, J. Chem. Theory Comput.,
     2021, 17, 4250-4261. DOI: 10.1021/acs.jctc.1c00471
   
   for DFT-D4:
   * E. Caldeweyher, C. Bannwarth and S. Grimme, J. Chem. Phys., 2017,
     147, 034112. DOI: 10.1063/1.4993215
   * E. Caldeweyher, S. Ehlert, A. Hansen, H. Neugebauer, S. Spicher,
     C. Bannwarth and S. Grimme, J. Chem. Phys., 2019, 150, 154122.
     DOI: 10.1063/1.5090222
   * E. Caldeweyher, J.-M. Mewes, S. Ehlert and S. Grimme, Phys. Chem. Chem. Phys.
     2020, 22, 8499-8512. DOI: 10.1039/D0CP00502A
   
   for sTDA-xTB:
   * S. Grimme and C. Bannwarth, J. Chem. Phys., 2016, 145, 054103.
     DOI: 10.1063/1.4959605
   
   in the mass-spec context:
   * V. Asgeirsson, C. Bauer and S. Grimme, Chem. Sci., 2017, 8, 4879.
     DOI: 10.1039/c7sc00601b
   * J. Koopman and S. Grimme, ACS Omega 2019, 4, 12, 15120-15133.
     DOI: 10.1021/acsomega.9b02011
   
   for metadynamics refer to:
   * S. Grimme, J. Chem. Theory Comput., 2019, 155, 2847-2862
     DOI: 10.1021/acs.jctc.9b00143
   
   for SPH calculations refer to:
   * S. Spicher and S. Grimme, J. Chem. Theory Comput., 2021, 17, 1701-1714
     DOI: 10.1021/acs.jctc.0c01306
   
   with help from (in alphabetical order)
   P. Atkinson, C. Bannwarth, F. Bohle, G. Brandenburg, E. Caldeweyher
   M. Checinski, S. Dohm, S. Ehlert, S. Ehrlich, I. Gerasimov, C. Hölzer
   A. Katbashev, J. Koopman, C. Lavigne, S. Lehtola, F. März, M. Müller,
   F. Musil, H. Neugebauer, J. Pisarek, C. Plett, P. Pracht, F. Pultar,
   J. Seibert, P. Shushkov, S. Spicher, M. Stahn, M. Steiner, T. Strunk,
   J. Stückrath, T. Rose, and J. Unsleber
   
 * started run on 2025/01/14 at 21:20:44.021     

           -------------------------------------------------
          |                Calculation Setup                |
           -------------------------------------------------

[...]
   242. D(C  23,C  24,C  13,C  12)      0.10 -0.000000   -0.01      0.09   
   243. D(C  20,C  25,C  24,C  23)     -0.04 -0.000003    0.00     -0.03   
   244. D(C  20,C  25,C  24,C  13)    179.95 -0.000006    0.01    179.96   
   245. D(C  16,C  25,C  24,C  23)    179.95  0.000001   -0.00    179.95   
   246. D(C  16,C  25,C  24,C  13)     -0.06 -0.000002    0.00     -0.05   
   247. D(C  24,C  25,C  20,C  21)     -0.01  0.000001   -0.02     -0.03   
   248. D(C  24,C  25,C  20,C  19)    179.99  0.000005   -0.04    179.96   
   249. D(C  16,C  25,C  20,C  21)    180.00 -0.000004   -0.02    179.98   
   250. D(C  16,C  25,C  20,C  19)      0.00  0.000001   -0.03     -0.03   
   251. D(C  24,C  25,C  16,C  17)   -179.96  0.000000    0.01   -179.95   
   252. D(C  24,C  25,C  16,C  15)      0.05  0.000003    0.00      0.05   
   253. D(C  20,C  25,C  16,C  17)      0.03  0.000005    0.00      0.04   
   254. D(C  20,C  25,C  16,C  15)   -179.96  0.000007   -0.01   -179.97   
   255. D(N  40,H  36,C  21,C  22)    174.45 -0.000002   -0.15    174.29   
   256. D(N  40,H  36,C  21,C  20)     -5.47  0.000010   -0.17     -5.64   
   257. D(H  43,C  38,C  19,C  20)     30.47 -0.000039   -0.43     30.04   
   258. D(H  43,C  38,C  19,C  18)   -144.38 -0.000028   -0.67   -145.04   
   259. D(H  42,C  38,C  19,C  20)    -85.87  0.000013   -0.40    -86.27   
   260. D(H  42,C  38,C  19,C  18)     99.28  0.000024   -0.64     98.64   
   261. D(H  41,C  38,C  19,C  20)    149.07  0.000011   -0.41    148.66   
   262. D(H  41,C  38,C  19,C  18)    -25.78  0.000022   -0.64    -26.43   
   263. D(C  39,N  40,H  36,C  21)   -171.09  0.000013   -0.18   -171.27   
   264. D(H  36,N  40,C  19,C  20)     -2.11 -0.000003   -0.02     -2.14   
   265. D(H  36,N  40,C  19,C  18)   -179.42  0.000014   -0.07   -179.49   
   266. D(H  36,N  40,C  38,H  43)     31.26 -0.000035   -0.18     31.07   
   267. D(H  36,N  40,C  38,H  42)    -88.48  0.000035   -0.26    -88.74   
   268. D(H  36,N  40,C  38,H  41)    151.33  0.000003   -0.22    151.11   
   269. D(H  35,N  40,H  36,C  21)      6.26  0.000004    0.13      6.39   
   270. D(C  19,N  40,H  36,C  21)      5.07 -0.000002    0.13      5.20   
    ----------------------------------------------------------------------------
                 *******************************************************
                 *** FINAL ENERGY EVALUATION AT THE STATIONARY POINT ***
                 ***               (AFTER   85 CYCLES)               ***
                 *******************************************************
---------------------------------
CARTESIAN COORDINATES (ANGSTROEM)
---------------------------------
  O    -0.011702    1.728194   -1.947593
  C    -0.501700    1.073382   -1.039658
  C     0.288246    0.219013   -0.128537
  C     1.706940    0.158484   -0.308134
  N     2.390362    0.795094   -1.180794
  C     3.716692    0.545378   -1.121503
  C     4.690702    1.101039   -1.950235
  C     6.006939    0.743307   -1.761876
  C     6.373189   -0.158745   -0.762162
  C     5.428418   -0.723257    0.072051
  C     4.102005   -0.370494   -0.108813
  S     2.706901   -0.900513    0.765274
  C    -0.323328   -0.500873    0.866823
  C    -1.712641   -0.476664    1.089394
  C    -2.321649   -1.225354    2.119145
  C    -3.670656   -1.186469    2.318215
  C    -4.513276   -0.390461    1.497001
  C    -5.899594   -0.332372    1.679007
  C    -6.690876    0.456173    0.857985
  C    -6.129751    1.202660   -0.158113
  C    -4.740968    1.175397   -0.378696
  C    -4.131384    1.926406   -1.409654
  C    -2.775945    1.878490   -1.601901
  C    -1.952740    1.088040   -0.785624
  C    -2.526807    0.330861    0.248651
  C    -3.925658    0.371808    0.455742
  H     4.389001    1.795939   -2.716962
  H     6.772099    1.165407   -2.396185
  H     7.413287   -0.420690   -0.637739
  H     5.710084   -1.420796    0.845655
  H     0.283672   -1.118361    1.517314
  H    -1.692796   -1.835332    2.752047
  H    -4.123985   -1.765124    3.110348
  H    -6.349896   -0.912593    2.471753
  H    -7.758951    0.484400    1.017335
  H    -6.743110    1.816907   -0.799209
  H    -4.763380    2.535371   -2.038929
  H    -2.298894    2.447428   -2.386607
  C    -6.968471    4.775972   -4.878661
  C    -6.954732    3.957821   -3.701149
  N    -6.936312    3.305929   -2.762206
  H    -7.916446    4.649106   -5.400120
  H    -6.846374    5.821187   -4.596732
  H    -6.150699    4.480152   -5.534936

----------------------------
CARTESIAN COORDINATES (A.U.)
----------------------------
  NO LB    ZA    FRAG    MASS        X           Y           Z
   0 O   8.0000    0    15.999   -0.022114    3.265813   -3.680418
   1 C   6.0000    0    12.011   -0.948076    2.028398   -1.964668
   2 C   6.0000    0    12.011    0.544707    0.413875   -0.242900
   3 C   6.0000    0    12.011    3.225648    0.299492   -0.582290
   4 N   7.0000    0    14.007    4.517129    1.502509   -2.231377
   5 C   6.0000    0    12.011    7.023530    1.030615   -2.119333
   6 C   6.0000    0    12.011    8.864142    2.080663   -3.685410
   7 C   6.0000    0    12.011   11.351470    1.404646   -3.329463
   8 C   6.0000    0    12.011   12.043582   -0.299984   -1.440278
   9 C   6.0000    0    12.011   10.258223   -1.366758    0.136157
  10 C   6.0000    0    12.011    7.751666   -0.700133   -0.205627
  11 S  16.0000    0    32.060    5.115302   -1.701723    1.446158
  12 C   6.0000    0    12.011   -0.611002   -0.946513    1.638059
  13 C   6.0000    0    12.011   -3.236422   -0.900764    2.058655
  14 C   6.0000    0    12.011   -4.387281   -2.315583    4.004603
  15 C   6.0000    0    12.011   -6.936535   -2.242102    4.380791
  16 C   6.0000    0    12.011   -8.528855   -0.737865    2.828922
  17 C   6.0000    0    12.011  -11.148618   -0.628092    3.172863
  18 C   6.0000    0    12.011  -12.643924    0.862043    1.621356
  19 C   6.0000    0    12.011  -11.583551    2.272699   -0.298789
  20 C   6.0000    0    12.011   -8.959132    2.221179   -0.715632
  21 C   6.0000    0    12.011   -7.807184    3.640379   -2.663860
  22 C   6.0000    0    12.011   -5.245777    3.549832   -3.027154
  23 C   6.0000    0    12.011   -3.690144    2.056097   -1.484615
  24 C   6.0000    0    12.011   -4.774973    0.625236    0.469882
  25 C   6.0000    0    12.011   -7.418418    0.702615    0.861228
  26 H   1.0000    0     1.008    8.294009    3.393832   -5.134315
  27 H   1.0000    0     1.008   12.797413    2.202300   -4.528133
  28 H   1.0000    0     1.008   14.009082   -0.794988   -1.205151
  29 H   1.0000    0     1.008   10.790495   -2.684915    1.598057
  30 H   1.0000    0     1.008    0.536063   -2.113396    2.867308
  31 H   1.0000    0     1.008   -3.198921   -3.468276    5.200615
  32 H   1.0000    0     1.008   -7.793202   -3.335601    5.877706
  33 H   1.0000    0     1.008  -11.999565   -1.724551    4.670936
  34 H   1.0000    0     1.008  -14.662293    0.915384    1.922485
  35 H   1.0000    0     1.008  -12.742630    3.433457   -1.510286
  36 H   1.0000    0     1.008   -9.001484    4.791157   -3.853017
  37 H   1.0000    0     1.008   -4.344279    4.624968   -4.510034
  38 C   6.0000    0    12.011  -13.168502    9.025279   -9.219334
  39 C   6.0000    0    12.011  -13.142539    7.479197   -6.994158
  40 N   7.0000    0    14.007  -13.107731    6.247301   -5.219814
  41 H   1.0000    0     1.008  -14.959915    8.785537  -10.204748
  42 H   1.0000    0     1.008  -12.937772   11.000450   -8.686565
  43 H   1.0000    0     1.008  -11.623137    8.466261  -10.459513

      -----------------------------------------------------------      
     |                   =====================                   |     
     |                           x T B                           |     
     |                   =====================                   |     
     |                         S. Grimme                         |     
     |          Mulliken Center for Theoretical Chemistry        |     
     |                    University of Bonn                     |     
      -----------------------------------------------------------      

   * xtb version 6.6.1 (8d0f1dd) compiled by 'stahn@M-Bot' on 2023-08-01

   xtb is free software: you can redistribute it and/or modify it under
   the terms of the GNU Lesser General Public License as published by
   the Free Software Foundation, either version 3 of the License, or
   (at your option) any later version.
   
   xtb is distributed in the hope that it will be useful,
   but WITHOUT ANY WARRANTY; without even the implied warranty of
   MERCHANTABILITY or FITNESS FOR A PARTICULAR PURPOSE.  See the
   GNU Lesser General Public License for more details.
   
   Cite this work as:
   * C. Bannwarth, E. Caldeweyher, S. Ehlert, A. Hansen, P. Pracht,
     J. Seibert, S. Spicher, S. Grimme, WIREs Comput. Mol. Sci., 2020, 11,
     e01493. DOI: 10.1002/wcms.1493
   
   for GFN2-xTB:
   * C. Bannwarth, S. Ehlert and S. Grimme., J. Chem. Theory Comput., 2019,
     15, 1652-1671. DOI: 10.1021/acs.jctc.8b01176
   for GFN1-xTB:
   * S. Grimme, C. Bannwarth, P. Shushkov, J. Chem. Theory Comput., 2017,
     13, 1989-2009. DOI: 10.1021/acs.jctc.7b00118
   for GFN0-xTB:
   * P. Pracht, E. Caldeweyher, S. Ehlert, S. Grimme, ChemRxiv, 2019, preprint.
     DOI: 10.26434/chemrxiv.8326202.v1
   for GFN-FF:
   * S. Spicher and S. Grimme, Angew. Chem. Int. Ed., 2020, 59, 15665-15673.
     DOI: 10.1002/anie.202004239
   
   for ALPB and GBSA implicit solvation:
   * S. Ehlert, M. Stahn, S. Spicher, S. Grimme, J. Chem. Theory Comput.,
     2021, 17, 4250-4261. DOI: 10.1021/acs.jctc.1c00471
   
   for DFT-D4:
   * E. Caldeweyher, C. Bannwarth and S. Grimme, J. Chem. Phys., 2017,
     147, 034112. DOI: 10.1063/1.4993215
   * E. Caldeweyher, S. Ehlert, A. Hansen, H. Neugebauer, S. Spicher,
     C. Bannwarth and S. Grimme, J. Chem. Phys., 2019, 150, 154122.
     DOI: 10.1063/1.5090222
   * E. Caldeweyher, J.-M. Mewes, S. Ehlert and S. Grimme, Phys. Chem. Chem. Phys.
     2020, 22, 8499-8512. DOI: 10.1039/D0CP00502A
   
   for sTDA-xTB:
   * S. Grimme and C. Bannwarth, J. Chem. Phys., 2016, 145, 054103.
     DOI: 10.1063/1.4959605
   
   in the mass-spec context:
   * V. Asgeirsson, C. Bauer and S. Grimme, Chem. Sci., 2017, 8, 4879.
     DOI: 10.1039/c7sc00601b
   * J. Koopman and S. Grimme, ACS Omega 2019, 4, 12, 15120-15133.
     DOI: 10.1021/acsomega.9b02011
   
   for metadynamics refer to:
   * S. Grimme, J. Chem. Theory Comput., 2019, 155, 2847-2862
     DOI: 10.1021/acs.jctc.9b00143
   
   for SPH calculations refer to:
   * S. Spicher and S. Grimme, J. Chem. Theory Comput., 2021, 17, 1701-1714
     DOI: 10.1021/acs.jctc.0c01306
   
   with help from (in alphabetical order)
   P. Atkinson, C. Bannwarth, F. Bohle, G. Brandenburg, E. Caldeweyher
   M. Checinski, S. Dohm, S. Ehlert, S. Ehrlich, I. Gerasimov, C. Hölzer
   A. Katbashev, J. Koopman, C. Lavigne, S. Lehtola, F. März, M. Müller,
   F. Musil, H. Neugebauer, J. Pisarek, C. Plett, P. Pracht, F. Pultar,
   J. Seibert, P. Shushkov, S. Spicher, M. Stahn, M. Steiner, T. Strunk,
   J. Stückrath, T. Rose, and J. Unsleber
   
 * started run on 2025/01/14 at 21:34:20.399     

           -------------------------------------------------
          |                Calculation Setup                |
           -------------------------------------------------

          program call               : /home/jang/cal_tmp/10_orca/orca_5_0_4_linux_x86-64_shared_openmpi411/otool_xtb /home/jang/cal_tmp/10_orca/Gen_chromophore/Gen_molecular_pairs_cal/mol_4_5.xyz/input_XTB.xyz --grad -c 0 -u 0 -P 4 --namespace /home/jang/cal_tmp/10_orca/Gen_chromophore/Gen_molecular_pairs_cal/mol_4_5.xyz/input --input /home/jang/cal_tmp/10_orca/Gen_chromophore/Gen_molecular_pairs_cal/mol_4_5.xyz/input_XTB.input.tmp --acc 1.000000
          hostname                   : node02
          calculation namespace      : /home/jang/cal_tmp/10_orca/Gen_chromophore/Gen_molecular_pairs_cal/mol_4_5.xyz/input
          coordinate file            : /home/jang/cal_tmp/10_orca/Gen_chromophore/Gen_molecular_pairs_cal/mol_4_5.xyz/input_XTB.xyz
          omp threads                :                     4

   ID    Z sym.   atoms
    1    8 O      1
    2    6 C      2-4, 6-11, 13-26, 39, 40
    3    7 N      5, 41
    4   16 S      12
    5    1 H      27-38, 42-44

molecular fragmentation (1/2 indicates fragments):
11111111111111111111111111111111111111222222
# atoms in fragment 1/2:    38     6
 fragment masses (1/2) :      350.41       41.05
CMA distance (Bohr)    :  16.033
constraining FC (au)   :  0.0500

           -------------------------------------------------
          |                 G F N 2 - x T B                 |
           -------------------------------------------------

        Reference                      10.1021/acs.jctc.8b01176
      * Hamiltonian:
        H0-scaling (s, p, d)           1.850000    2.230000    2.230000
        zeta-weighting                 0.500000
      * Dispersion:
        s8                             2.700000
        a1                             0.520000
        a2                             5.000000
        s9                             5.000000
      * Repulsion:
        kExp                           1.500000    1.000000
        rExp                           1.000000
      * Coulomb:
        alpha                          2.000000
        third order                    shell-resolved
        anisotropic                    true
        a3                             3.000000
        a5                             4.000000
        cn-shift                       1.200000
        cn-exp                         4.000000
        max-rad                        5.000000

q/qsh data taken from xtbrestart
CAMM data taken from xtbrestart

          ...................................................
          :                      SETUP                      :
          :.................................................:
          :  # basis functions                 137          :
          :  # atomic orbitals                 136          :
          :  # shells                           74          :
          :  # electrons                       137          :
          :  max. iterations                   250          :
          :  Hamiltonian                  GFN2-xTB          :
          :  restarted?                       true          :
          :  GBSA solvation                  false          :
          :  PC potential                    false          :
          :  electronic temp.          300.0000000     K    :
          :  accuracy                    1.0000000          :
          :  -> integral cutoff          0.2500000E+02      :
          :  -> integral neglect         0.1000000E-07      :
          :  -> SCF convergence          0.1000000E-05 Eh   :
          :  -> wf. convergence          0.1000000E-03 e    :
          :  Broyden damping             0.4000000          :
          ...................................................

 iter      E             dE          RMSdq      gap      omega  full diag
   1    -75.6235809 -0.756236E+02  0.238E-02    1.74       0.0  T
   2    -75.6235812 -0.287430E-06  0.134E-02    1.74       1.1  T
   3    -75.6235813 -0.871870E-07  0.108E-03    1.74      14.0  T
   4    -75.6235813 -0.978902E-08  0.724E-04    1.74      20.8  T
   5    -75.6235813 -0.146085E-07  0.220E-04    1.74      68.7  T

   *** convergence criteria satisfied after 5 iterations ***

         #    Occupation            Energy/Eh            Energy/eV
      -------------------------------------------------------------
         1        2.0000           -0.7222840             -19.6543
       ...           ...                  ...                  ...
        63        2.0000           -0.4111474             -11.1879
        64        2.0000           -0.4106297             -11.1738
        65        2.0000           -0.3856546             -10.4942
        66        2.0000           -0.3850164             -10.4768
        67        2.0000           -0.3797128             -10.3325
        68        2.0000           -0.3681236             -10.0172
        69        1.0000           -0.3476010              -9.4587 (HOMO)
        70                         -0.2837362              -7.7209 (LUMO)
        71                         -0.2614745              -7.1151
        72                         -0.2344441              -6.3795
        73                         -0.2328581              -6.3364
        74                         -0.2269152              -6.1747
       ...                                ...                  ...
       136                          1.1413461              31.0576
      -------------------------------------------------------------
                  HL-Gap            0.0638648 Eh            1.7378 eV
             Fermi-level           -0.3367655 Eh           -9.1639 eV

 SCC (total)                   0 d,  0 h,  0 min,  0.086 sec
 SCC setup                      ...        0 min,  0.001 sec (  0.871%)
 Dispersion                     ...        0 min,  0.002 sec (  1.852%)
 classical contributions        ...        0 min,  0.000 sec (  0.144%)
 integral evaluation            ...        0 min,  0.015 sec ( 17.362%)
 iterations                     ...        0 min,  0.049 sec ( 57.445%)
 molecular gradient             ...        0 min,  0.018 sec ( 21.202%)
 printout                       ...        0 min,  0.001 sec (  0.958%)

         :::::::::::::::::::::::::::::::::::::::::::::::::::::
         ::                     SUMMARY                     ::
         :::::::::::::::::::::::::::::::::::::::::::::::::::::
         :: total energy             -74.308109099657 Eh    ::
         :: gradient norm              0.000446681288 Eh/a0 ::
         :: HOMO-LUMO gap              1.737848850571 eV    ::
         ::.................................................::
         :: SCC energy               -75.623581281105 Eh    ::
         :: -> isotropic ES            0.046437052340 Eh    ::
         :: -> anisotropic ES          0.002604394646 Eh    ::
         :: -> anisotropic XC          0.051448323774 Eh    ::
         :: -> dispersion             -0.056347793555 Eh    ::
         :: repulsion energy           1.316193620508 Eh    ::
         :: add. restraining           0.000000000000 Eh    ::
         :: total charge               0.000000000103 e     ::
         :::::::::::::::::::::::::::::::::::::::::::::::::::::


Property printout bound to 'properties.out'

           -------------------------------------------------
          | TOTAL ENERGY              -74.308109099657 Eh   |
          | GRADIENT NORM               0.000446681288 Eh/α |
          | HOMO-LUMO GAP               1.737848850571 eV   |
           -------------------------------------------------

------------------------------------------------------------------------
 * finished run on 2025/01/14 at 21:34:21.877     
------------------------------------------------------------------------
 total:
 * wall-time:     0 d,  0 h,  0 min,  1.476 sec
 *  cpu-time:     0 d,  0 h,  0 min,  1.740 sec
 * ratio c/w:     1.179 speedup
 SCF:
 * wall-time:     0 d,  0 h,  0 min,  0.086 sec
 *  cpu-time:     0 d,  0 h,  0 min,  0.339 sec
 * ratio c/w:     3.934 speedup


-------------------------   --------------------
FINAL SINGLE POINT ENERGY       -74.308109099660
-------------------------   --------------------

                                *** OPTIMIZATION RUN DONE ***

Timings for individual modules:

Sum of individual times         ...      263.778 sec (=   4.396 min)
Geometry relaxation             ...       93.287 sec (=   1.555 min)  35.4 %
XTB module                      ...      170.491 sec (=   2.842 min)  64.6 %
                             ****ORCA TERMINATED NORMALLY****
TOTAL RUN TIME: 0 days 0 hours 14 minutes 7 seconds 171 msec
