
                                 *****************
                                 * O   R   C   A *
                                 *****************

                                            #,                                       
                                            ###                                      
                                            ####                                     
                                            #####                                    
                                            ######                                   
                                           ########,                                 
                                     ,,################,,,,,                         
                               ,,#################################,,                 
                          ,,##########################################,,             
                       ,#########################################, ''#####,          
                    ,#############################################,,   '####,        
                  ,##################################################,,,,####,       
                ,###########''''           ''''###############################       
              ,#####''   ,,,,##########,,,,          '''####'''          '####       
            ,##' ,,,,###########################,,,                        '##       
           ' ,,###''''                  '''############,,,                           
         ,,##''                                '''############,,,,        ,,,,,,###''
      ,#''                                            '''#######################'''  
     '                                                          ''''####''''         
             ,#######,   #######,   ,#######,      ##                                
            ,#'     '#,  ##    ##  ,#'     '#,    #''#        ######   ,####,        
            ##       ##  ##   ,#'  ##            #'  '#       #        #'  '#        
            ##       ##  #######   ##           ,######,      #####,   #    #        
            '#,     ,#'  ##    ##  '#,     ,#' ,#      #,         ##   #,  ,#        
             '#######'   ##     ##  '#######'  #'      '#     #####' # '####'        



                  #######################################################
                  #                        -***-                        #
                  #          Department of theory and spectroscopy      #
                  #    Directorship and core code : Frank Neese         #
                  #        Max Planck Institute fuer Kohlenforschung    #
                  #                Kaiser Wilhelm Platz 1               #
                  #                 D-45470 Muelheim/Ruhr               #
                  #                      Germany                        #
                  #                                                     #
                  #                  All rights reserved                #
                  #                        -***-                        #
                  #######################################################


                         Program Version 5.0.4 -  RELEASE  -


 With contributions from (in alphabetic order):
   Daniel Aravena         : Magnetic Suceptibility
   Michael Atanasov       : Ab Initio Ligand Field Theory (pilot matlab implementation)
   Alexander A. Auer      : GIAO ZORA, VPT2 properties, NMR spectrum
   Ute Becker             : Parallelization
   Giovanni Bistoni       : ED, misc. LED, open-shell LED, HFLD
   Martin Brehm           : Molecular dynamics
   Dmytro Bykov           : SCF Hessian
   Vijay G. Chilkuri      : MRCI spin determinant printing, contributions to CSF-ICE
   Dipayan Datta          : RHF DLPNO-CCSD density
   Achintya Kumar Dutta   : EOM-CC, STEOM-CC
   Dmitry Ganyushin       : Spin-Orbit,Spin-Spin,Magnetic field MRCI
   Miquel Garcia          : C-PCM and meta-GGA Hessian, CC/C-PCM, Gaussian charge scheme
   Yang Guo               : DLPNO-NEVPT2, F12-NEVPT2, CIM, IAO-localization
   Andreas Hansen         : Spin unrestricted coupled pair/coupled cluster methods
   Benjamin Helmich-Paris : MC-RPA, TRAH-SCF, COSX integrals
   Lee Huntington         : MR-EOM, pCC
   Robert Izsak           : Overlap fitted RIJCOSX, COSX-SCS-MP3, EOM
   Marcus Kettner         : VPT2
   Christian Kollmar      : KDIIS, OOCD, Brueckner-CCSD(T), CCSD density, CASPT2, CASPT2-K
   Simone Kossmann        : Meta GGA functionals, TD-DFT gradient, OOMP2, MP2 Hessian
   Martin Krupicka        : Initial AUTO-CI
   Lucas Lang             : DCDCAS
   Marvin Lechner         : AUTO-CI (C++ implementation), FIC-MRCC
   Dagmar Lenk            : GEPOL surface, SMD
   Dimitrios Liakos       : Extrapolation schemes; Compound Job, initial MDCI parallelization
   Dimitrios Manganas     : Further ROCIS development; embedding schemes
   Dimitrios Pantazis     : SARC Basis sets
   Anastasios Papadopoulos: AUTO-CI, single reference methods and gradients
   Taras Petrenko         : DFT Hessian,TD-DFT gradient, ASA, ECA, R-Raman, ABS, FL, XAS/XES, NRVS
   Peter Pinski           : DLPNO-MP2, DLPNO-MP2 Gradient
   Christoph Reimann      : Effective Core Potentials
   Marius Retegan         : Local ZFS, SOC
   Christoph Riplinger    : Optimizer, TS searches, QM/MM, DLPNO-CCSD(T), (RO)-DLPNO pert. Triples
   Tobias Risthaus        : Range-separated hybrids, TD-DFT gradient, RPA, STAB
   Michael Roemelt        : Original ROCIS implementation
   Masaaki Saitow         : Open-shell DLPNO-CCSD energy and density
   Barbara Sandhoefer     : DKH picture change effects
   Avijit Sen             : IP-ROCIS
   Kantharuban Sivalingam : CASSCF convergence, NEVPT2, FIC-MRCI
   Bernardo de Souza      : ESD, SOC TD-DFT
   Georgi Stoychev        : AutoAux, RI-MP2 NMR, DLPNO-MP2 response
   Willem Van den Heuvel  : Paramagnetic NMR
   Boris Wezisla          : Elementary symmetry handling
   Frank Wennmohs         : Technical directorship


 We gratefully acknowledge several colleagues who have allowed us to
 interface, adapt or use parts of their codes:
   Stefan Grimme, W. Hujo, H. Kruse, P. Pracht,  : VdW corrections, initial TS optimization,
                  C. Bannwarth, S. Ehlert          DFT functionals, gCP, sTDA/sTD-DF
   Ed Valeev, F. Pavosevic, A. Kumar             : LibInt (2-el integral package), F12 methods
   Garnet Chan, S. Sharma, J. Yang, R. Olivares  : DMRG
   Ulf Ekstrom                                   : XCFun DFT Library
   Mihaly Kallay                                 : mrcc  (arbitrary order and MRCC methods)
   Jiri Pittner, Ondrej Demel                    : Mk-CCSD
   Frank Weinhold                                : gennbo (NPA and NBO analysis)
   Christopher J. Cramer and Donald G. Truhlar   : smd solvation model
   Lars Goerigk                                  : TD-DFT with DH, B97 family of functionals
   V. Asgeirsson, H. Jonsson                     : NEB implementation
   FAccTs GmbH                                   : IRC, NEB, NEB-TS, DLPNO-Multilevel, CI-OPT
                                                   MM, QMMM, 2- and 3-layer-ONIOM, Crystal-QMMM,
                                                   LR-CPCM, SF, NACMEs, symmetry and pop. for TD-DFT,
                                                   nearIR, NL-DFT gradient (VV10), updates on ESD,
                                                   ML-optimized integration grids
   S Lehtola, MJT Oliveira, MAL Marques          : LibXC Library
   Liviu Ungur et al                             : ANISO software


 Your calculation uses the libint2 library for the computation of 2-el integrals
 For citations please refer to: http://libint.valeyev.net

 Your ORCA version has been built with support for libXC version: 5.1.0
 For citations please refer to: https://tddft.org/programs/libxc/

 This ORCA versions uses:
   CBLAS   interface :  Fast vector & matrix operations
   LAPACKE interface :  Fast linear algebra routines
   SCALAPACK package :  Parallel linear algebra routines
   Shared memory     :  Shared parallel matrices
   BLAS/LAPACK       :  OpenBLAS 0.3.15  USE64BITINT DYNAMIC_ARCH NO_AFFINITY SkylakeX SINGLE_THREADED
        Core in use  :  SkylakeX
   Copyright (c) 2011-2014, The OpenBLAS Project




***************************************
The coordinates will be read from file: mol.xyz
***************************************


Your calculation utilizes the atom-pairwise dispersion correction
with the Becke-Johnson damping scheme (D3BJ)
Cite in your paper:
S.Grimme, S.Ehrlich, L.Goerigk, J Comput Chem, (2011), 32, 1456–1465 
S.Grimme, J.Antony, S.Ehrlich and H.Krieg, J.Chem.Phys., 132, (2010), 154104 
   

Your calculation utilizes the semiempirical GFN2-xTB method
Please cite in your paper:
C. Bannwarth, Ehlert S., S. Grimme,  J. Chem. Theory Comput., 15, (2019), 1652.
   

================================================================================

----- Orbital basis set information -----
Your calculation utilizes the basis: def2-SVP
   F. Weigend and R. Ahlrichs, Phys. Chem. Chem. Phys. 7, 3297 (2005).

----- AuxJ basis set information -----
Your calculation utilizes the auxiliary basis: def2/J
   F. Weigend, Phys. Chem. Chem. Phys. 8, 1057 (2006).

================================================================================
                                        WARNINGS
                       Please study these warnings very carefully!
================================================================================


WARNING: Geometry Optimization
  ===> : Switching off AutoStart
         For restart on a previous wavefunction, please use MOREAD

WARNING: Found dipole moment calculation with XTB calculation
  ===> : Switching off dipole moment calculation


WARNING: TRAH-SCF for XTB is not implemented!
  ===> : Turning TRAH off!

================================================================================
                                       INPUT FILE
================================================================================
NAME = /home/jang/cal_tmp/10_orca/Gen_chromophore/Gen_molecular_pairs_cal/mol_2_2.xyz/input.inp
|  1> ! B3LYP D3BJ def2-SVP TightSCF XTB Opt PAL8
|  2> 
|  3> %geom
|  4>   MaxIter 3000
|  5> end
|  6> 
|  7> * xyzfile 0 1 mol.xyz
|  8> 
|  9> %pal nprocs 4 # any number (positive integer)
| 10> end
| 11> 
| 12>                          ****END OF INPUT****
================================================================================

                       *****************************
                       * Geometry Optimization Run *
                       *****************************

Geometry optimization settings:
Update method            Update   .... BFGS
Choice of coordinates    CoordSys .... Z-matrix Internals
Initial Hessian          InHess   .... Almoef's Model

Convergence Tolerances:
Energy Change            TolE     ....  5.0000e-06 Eh
Max. Gradient            TolMAXG  ....  3.0000e-04 Eh/bohr
RMS Gradient             TolRMSG  ....  1.0000e-04 Eh/bohr
Max. Displacement        TolMAXD  ....  4.0000e-03 bohr
RMS Displacement         TolRMSD  ....  2.0000e-03 bohr
Strict Convergence                ....  False
------------------------------------------------------------------------------
                        ORCA OPTIMIZATION COORDINATE SETUP
------------------------------------------------------------------------------

The optimization will be done in new redundant internal coordinates
Making redundant internal coordinates   ...  (new redundants) done
Evaluating the initial hessian          ...  (Almloef) done
Evaluating the coordinates              ...  done
Calculating the B-matrix                .... done
Calculating the G-matrix                .... done
Diagonalizing the G-matrix              .... done
Small eigenvalue found = 2.072e-02
The first mode is                       ....   88
The number of degrees of freedom        ....   57

    -----------------------------------------------------------------
                    Redundant Internal Coordinates


    -----------------------------------------------------------------
         Definition                    Initial Value    Approx d2E/dq
    -----------------------------------------------------------------
      1. B(C   1,N   0)                  1.1617         1.294464   
      2. B(C   2,C   1)                  1.4203         0.558906   
      3. B(C   3,C   2)                  1.3407         0.748977   
      4. B(C   4,C   3)                  1.4517         0.498162   
      5. B(C   5,C   4)                  1.3886         0.628017   
      6. B(C   6,C   5)                  1.4030         0.595707   
      7. B(C   7,C   6)                  1.4095         0.581595   
      8. B(O   8,C   7)                  1.2731         0.859781   
      9. B(C   9,C   7)                  1.4064         0.588194   
     10. B(C  10,C   9)                  1.3965         0.610165   
     11. B(C  10,C   4)                  1.3862         0.633503   
     12. B(O  11,C  10)                  1.4084         0.522996   
     13. B(C  12,O  11)                  1.3886         0.562544   
     14. B(C  12,C   2)                  1.4794         0.449829   
     15. B(O  13,C  12)                  1.2282         1.014053   
     16. B(H  14,C   3)                  1.0854         0.366227   
     17. B(H  15,C   5)                  1.0846         0.367344   
     18. B(H  16,C   6)                  1.0904         0.359540   
     19. B(H  17,C   9)                  1.0885         0.362113   
     20. B(O  18,H  15)                  4.4863         0.000001   
     21. B(H  19,O  18)                  0.9690         0.503047   
     22. B(H  20,H  16)                  4.8384         0.000000   
     23. B(H  20,H  15)                  3.8497         0.000003   
     24. B(H  20,C   5)                  4.7207         0.000001   
     25. B(H  20,O  18)                  0.9690         0.503047   
     26. L(N   0,C   1,C   2,C   3, 1) 176.9664         0.483890   
     27. L(N   0,C   1,C   2,C   3, 2) 180.0001         0.483890   
     28. A(C   1,C   2,C  12)          118.1964         0.402448   
     29. A(C   3,C   2,C  12)          121.5410         0.423919   
     30. A(C   1,C   2,C   3)          120.2626         0.440789   
     31. A(C   2,C   3,C   4)          119.9811         0.431746   
     32. A(C   4,C   3,H  14)          117.9411         0.341119   
     33. A(C   2,C   3,H  14)          122.0778         0.365496   
     34. A(C   5,C   4,C  10)          118.4668         0.436763   
     35. A(C   3,C   4,C   5)          122.3290         0.418350   
     36. A(C   3,C   4,C  10)          119.2042         0.418999   
     37. A(C   4,C   5,C   6)          119.6307         0.431954   
     38. A(C   6,C   5,H  15)          118.6348         0.351714   
     39. A(C   4,C   5,H  15)          121.7345         0.354873   
     40. A(H  15,C   5,H  20)           32.4524         0.098906   
     41. A(C   6,C   5,H  20)          102.9527         0.101778   
     42. A(C   4,C   5,H  20)          128.2067         0.101931   
     43. A(C   7,C   6,H  16)          117.8867         0.349025   
     44. A(C   5,C   6,H  16)          118.6857         0.350440   
     45. A(C   5,C   6,C   7)          123.4275         0.426045   
     46. A(O   8,C   7,C   9)          122.6345         0.453147   
     47. A(C   6,C   7,C   9)          114.9713         0.425078   
     48. A(C   6,C   7,O   8)          122.3942         0.452218   
     49. A(C  10,C   9,H  17)          119.4361         0.352287   
     50. A(C   7,C   9,H  17)          118.5678         0.350111   
     51. A(C   7,C   9,C  10)          121.9961         0.428746   
     52. A(C   4,C  10,O  11)          120.7891         0.419908   
     53. A(C   4,C  10,C   9)          121.5076         0.434500   
     54. A(C   9,C  10,O  11)          117.7033         0.417108   
     55. A(C  10,O  11,C  12)          121.3283         0.408478   
     56. A(O  11,C  12,O  13)          121.2293         0.460131   
     57. A(C   2,C  12,O  13)          121.6144         0.444743   
     58. A(C   2,C  12,O  11)          117.1563         0.400326   
     59. A(O  18,H  15,H  20)           10.0860         0.089640   
     60. A(C   5,H  15,H  20)          138.8526         0.100240   
     61. A(C   5,H  15,O  18)          130.8685         0.100605   
     62. A(C   6,H  16,H  20)          104.3964         0.093917   
     63. A(H  19,O  18,H  20)          103.9780         0.318375   
     64. A(H  15,O  18,H  20)           44.0877         0.101315   
     65. A(H  15,O  18,H  19)          135.3023         0.101315   
     66. A(H  15,H  20,H  16)           30.0469         0.089273   
     67. A(C   5,H  20,H  16)           25.9685         0.089240   
     68. A(H  16,H  20,O  18)           96.4856         0.094243   
     69. A(C   5,H  20,H  15)            8.6950         0.089547   
     70. A(H  15,H  20,O  18)          125.8264         0.100929   
     71. A(C   5,H  20,O  18)          119.0781         0.099512   
     72. D(C   4,C   3,C   2,C   1)   -180.0000         0.039995   
     73. D(H  14,C   3,C   2,C  12)   -180.0000         0.039995   
     74. D(H  14,C   3,C   2,C   1)      0.0000         0.039995   
     75. D(C   4,C   3,C   2,C  12)     -0.0000         0.039995   
     76. D(C  10,C   4,C   3,C   2)      0.0000         0.016902   
     77. D(C  10,C   4,C   3,H  14)   -180.0000         0.016902   
     78. D(C   5,C   4,C   3,H  14)     -0.0000         0.016902   
     79. D(C   5,C   4,C   3,C   2)   -180.0000         0.016902   
     80. D(H  20,C   5,C   4,C  10)    140.8838         0.029708   
     81. D(H  15,C   5,C   4,C  10)   -180.0000         0.029708   
     82. D(H  15,C   5,C   4,C   3)      0.0000         0.029708   
     83. D(C   6,C   5,C   4,C  10)      0.0000         0.029708   
     84. D(H  20,C   5,C   4,C   3)    -39.1162         0.029708   
     85. D(C   6,C   5,C   4,C   3)   -180.0000         0.029708   
     86. D(C   7,C   6,C   5,C   4)     -0.0000         0.026552   
     87. D(H  16,C   6,C   5,H  20)     30.5767         0.026552   
     88. D(H  16,C   6,C   5,H  15)     -0.0001         0.026552   
     89. D(C   7,C   6,C   5,H  20)   -149.4233         0.026552   
     90. D(H  16,C   6,C   5,C   4)    179.9999         0.026552   
     91. D(C   7,C   6,C   5,H  15)    180.0000         0.026552   
     92. D(C   9,C   7,C   6,H  16)   -179.9999         0.023245   
     93. D(C   9,C   7,C   6,C   5)      0.0000         0.023245   
     94. D(O   8,C   7,C   6,H  16)      0.0000         0.023245   
     95. D(O   8,C   7,C   6,C   5)   -180.0000         0.023245   
     96. D(H  17,C   9,C   7,O   8)      0.0000         0.023802   
     97. D(H  17,C   9,C   7,C   6)    180.0000         0.023802   
     98. D(C  10,C   9,C   7,O   8)   -180.0000         0.023802   
     99. D(C  10,C   9,C   7,C   6)     -0.0000         0.023802   
    100. D(C   9,C  10,C   4,C   5)      0.0000         0.027846   
    101. D(C   9,C  10,C   4,C   3)    180.0000         0.027846   
    102. D(O  11,C  10,C   4,C   3)     -0.0000         0.027846   
    103. D(O  11,C  10,C   9,H  17)     -0.0000         0.025714   
    104. D(O  11,C  10,C   9,C   7)    180.0000         0.025714   
    105. D(C   4,C  10,C   9,H  17)    180.0000         0.025714   
    106. D(C   4,C  10,C   9,C   7)     -0.0000         0.025714   
    107. D(O  11,C  10,C   4,C   5)   -180.0000         0.027846   
    108. D(C  12,O  11,C  10,C   9)    179.9999         0.019703   
    109. D(C  12,O  11,C  10,C   4)     -0.0001         0.019703   
    110. D(O  13,C  12,O  11,C  10)   -179.9999         0.022938   
    111. D(C   2,C  12,O  11,C  10)      0.0001         0.022938   
    112. D(O  13,C  12,C   2,C   3)    179.9999         0.013793   
    113. D(O  13,C  12,C   2,C   1)     -0.0001         0.013793   
    114. D(O  11,C  12,C   2,C   3)     -0.0001         0.013793   
    115. D(O  11,C  12,C   2,C   1)    179.9999         0.013793   
    116. D(H  20,H  15,C   5,C   6)     67.4989         0.139086   
    117. D(H  20,H  15,C   5,C   4)   -112.5011         0.139086   
    118. D(O  18,H  15,C   5,H  20)     -8.7267         0.139086   
    119. D(O  18,H  15,C   5,C   6)     58.7721         0.139086   
    120. D(O  18,H  15,C   5,C   4)   -121.2279         0.139086   
    121. D(H  20,H  16,C   6,C   7)    150.0416         0.109214   
    122. D(H  20,H  16,C   6,C   5)    -29.9584         0.109214   
    123. D(H  20,O  18,H  15,C   5)    145.2454         0.001500   
    124. D(H  19,O  18,H  15,H  20)    -56.6516         0.001500   
    125. D(H  19,O  18,H  15,C   5)     88.5938         0.001500   
    126. D(H  16,H  20,C   5,H  15)    110.4121         0.001500   
    127. D(H  16,H  20,C   5,C   6)    -13.2784         0.001500   
    128. D(H  16,H  20,C   5,C   4)   -159.0349         0.001500   
    129. D(H  15,H  20,C   5,C   6)   -123.6905         0.001500   
    130. D(H  15,H  20,C   5,C   4)     90.5531         0.001500   
    131. D(O  18,H  20,C   5,H  15)    142.5691         0.001500   
    132. D(O  18,H  20,C   5,C   6)     18.8787         0.001500   
    133. D(O  18,H  20,H  15,C   5)    -40.9313         0.001500   
    134. D(O  18,H  20,C   5,C   4)   -126.8778         0.001500   
    135. D(H  16,H  20,O  18,H  15)      7.0584         0.384301   
    136. D(H  16,H  20,O  18,H  19)    149.7950         0.384301   
    137. D(H  15,H  20,O  18,H  19)    142.7366         0.384301   
    138. D(C   5,H  20,O  18,H  15)     -6.5071         0.384301   
    139. D(C   5,H  20,O  18,H  19)    136.2294         0.384301   
    140. D(H  15,H  20,H  16,C   6)     33.7348         0.001500   
    141. D(C   5,H  20,H  16,C   6)     17.2976         0.001500   
    142. D(O  18,H  20,H  16,C   6)   -134.7879         0.001500   
    143. D(H  16,H  20,H  15,O  18)    -14.1135         0.001500   
    144. D(H  16,H  20,H  15,C   5)    -55.0448         0.001500   
    145. D(C   5,H  20,H  15,O  18)     40.9313         0.001500   
    -----------------------------------------------------------------

Number of atoms                         .... 21
Number of degrees of freedom            .... 145

         *************************************************************
         *                GEOMETRY OPTIMIZATION CYCLE   1            *
         *************************************************************
---------------------------------
CARTESIAN COORDINATES (ANGSTROEM)
---------------------------------
  N    -0.934059   -4.689148   -0.300813
  C    -0.789539   -3.564798   -0.046780
  C    -0.581237   -2.180989    0.196196
  C     0.000284   -1.411545   -0.735008
  C     0.210207    0.002077   -0.480230
  C     0.807281    0.843489   -1.409606
  C     0.982376    2.201535   -1.103995
  C     0.580879    2.780768    0.116658
  O     0.749466    4.016257    0.373410
  C    -0.018621    1.891869    1.026883
  C    -0.196975    0.538762    0.731304
  O    -0.807834   -0.270072    1.709193
  C    -1.021947   -1.625128    1.494475
  O    -1.554810   -2.328768    2.348498
  H     0.326918   -1.810149   -1.690275
  H     1.145731    0.479864   -2.373731
  H     1.452993    2.848351   -1.845057
  H    -0.351113    2.277625    1.988879
  O     5.214258    0.522122   -4.263647
  H     5.979938   -0.071758   -4.263647
  H     4.453014   -0.077436   -4.263647

----------------------------
CARTESIAN COORDINATES (A.U.)
----------------------------
  NO LB    ZA    FRAG    MASS        X           Y           Z
   0 N   7.0000    0    14.007   -1.765116   -8.861205   -0.568454
   1 C   6.0000    0    12.011   -1.492013   -6.736492   -0.088402
   2 C   6.0000    0    12.011   -1.098378   -4.121471    0.370756
   3 C   6.0000    0    12.011    0.000537   -2.667433   -1.388963
   4 C   6.0000    0    12.011    0.397233    0.003924   -0.907503
   5 C   6.0000    0    12.011    1.525540    1.593963   -2.663769
   6 C   6.0000    0    12.011    1.856422    4.160299   -2.086247
   7 C   6.0000    0    12.011    1.097703    5.254891    0.220451
   8 O   8.0000    0    15.999    1.416285    7.589625    0.705642
   9 C   6.0000    0    12.011   -0.035189    3.575114    1.940528
  10 C   6.0000    0    12.011   -0.372228    1.018113    1.381964
  11 O   8.0000    0    15.999   -1.526585   -0.510361    3.229906
  12 C   6.0000    0    12.011   -1.931200   -3.071047    2.824148
  13 O   8.0000    0    15.999   -2.938165   -4.400735    4.438018
  14 H   1.0000    0     1.008    0.617786   -3.420685   -3.194156
  15 H   1.0000    0     1.008    2.165118    0.906811   -4.485702
  16 H   1.0000    0     1.008    2.745758    5.382603   -3.486651
  17 H   1.0000    0     1.008   -0.663507    4.304088    3.758436
  18 O   8.0000    0    15.999    9.853519    0.986667   -8.057126
  19 H   1.0000    0     1.008   11.300445   -0.135603   -8.057126
  20 H   1.0000    0     1.008    8.414977   -0.146332   -8.057126

      -----------------------------------------------------------      
     |                   =====================                   |     
     |                           x T B                           |     
     |                   =====================                   |     
     |                         S. Grimme                         |     
     |          Mulliken Center for Theoretical Chemistry        |     
     |                    University of Bonn                     |     
      -----------------------------------------------------------      

   * xtb version 6.6.1 (8d0f1dd) compiled by 'stahn@M-Bot' on 2023-08-01

   xtb is free software: you can redistribute it and/or modify it under
   the terms of the GNU Lesser General Public License as published by
   the Free Software Foundation, either version 3 of the License, or
   (at your option) any later version.
   
   xtb is distributed in the hope that it will be useful,
   but WITHOUT ANY WARRANTY; without even the implied warranty of
   MERCHANTABILITY or FITNESS FOR A PARTICULAR PURPOSE.  See the
   GNU Lesser General Public License for more details.
   
   Cite this work as:
   * C. Bannwarth, E. Caldeweyher, S. Ehlert, A. Hansen, P. Pracht,
     J. Seibert, S. Spicher, S. Grimme, WIREs Comput. Mol. Sci., 2020, 11,
     e01493. DOI: 10.1002/wcms.1493
   
   for GFN2-xTB:
   * C. Bannwarth, S. Ehlert and S. Grimme., J. Chem. Theory Comput., 2019,
     15, 1652-1671. DOI: 10.1021/acs.jctc.8b01176
   for GFN1-xTB:
   * S. Grimme, C. Bannwarth, P. Shushkov, J. Chem. Theory Comput., 2017,
     13, 1989-2009. DOI: 10.1021/acs.jctc.7b00118
   for GFN0-xTB:
   * P. Pracht, E. Caldeweyher, S. Ehlert, S. Grimme, ChemRxiv, 2019, preprint.
     DOI: 10.26434/chemrxiv.8326202.v1
   for GFN-FF:
   * S. Spicher and S. Grimme, Angew. Chem. Int. Ed., 2020, 59, 15665-15673.
     DOI: 10.1002/anie.202004239
   
   for ALPB and GBSA implicit solvation:
   * S. Ehlert, M. Stahn, S. Spicher, S. Grimme, J. Chem. Theory Comput.,
     2021, 17, 4250-4261. DOI: 10.1021/acs.jctc.1c00471
   
   for DFT-D4:
   * E. Caldeweyher, C. Bannwarth and S. Grimme, J. Chem. Phys., 2017,
     147, 034112. DOI: 10.1063/1.4993215
   * E. Caldeweyher, S. Ehlert, A. Hansen, H. Neugebauer, S. Spicher,
     C. Bannwarth and S. Grimme, J. Chem. Phys., 2019, 150, 154122.
     DOI: 10.1063/1.5090222
   * E. Caldeweyher, J.-M. Mewes, S. Ehlert and S. Grimme, Phys. Chem. Chem. Phys.
     2020, 22, 8499-8512. DOI: 10.1039/D0CP00502A
   
   for sTDA-xTB:
   * S. Grimme and C. Bannwarth, J. Chem. Phys., 2016, 145, 054103.
     DOI: 10.1063/1.4959605
   
   in the mass-spec context:
   * V. Asgeirsson, C. Bauer and S. Grimme, Chem. Sci., 2017, 8, 4879.
     DOI: 10.1039/c7sc00601b
   * J. Koopman and S. Grimme, ACS Omega 2019, 4, 12, 15120-15133.
     DOI: 10.1021/acsomega.9b02011
   
   for metadynamics refer to:
   * S. Grimme, J. Chem. Theory Comput., 2019, 155, 2847-2862
     DOI: 10.1021/acs.jctc.9b00143
   
   for SPH calculations refer to:
   * S. Spicher and S. Grimme, J. Chem. Theory Comput., 2021, 17, 1701-1714
     DOI: 10.1021/acs.jctc.0c01306
   
   with help from (in alphabetical order)
   P. Atkinson, C. Bannwarth, F. Bohle, G. Brandenburg, E. Caldeweyher
   M. Checinski, S. Dohm, S. Ehlert, S. Ehrlich, I. Gerasimov, C. Hölzer
   A. Katbashev, J. Koopman, C. Lavigne, S. Lehtola, F. März, M. Müller,
   F. Musil, H. Neugebauer, J. Pisarek, C. Plett, P. Pracht, F. Pultar,
   J. Seibert, P. Shushkov, S. Spicher, M. Stahn, M. Steiner, T. Strunk,
   J. Stückrath, T. Rose, and J. Unsleber
   
 * started run on 2025/01/14 at 20:59:36.546     

           -------------------------------------------------
          |                Calculation Setup                |
           -------------------------------------------------

          program call               : /home/jang/cal_tmp/10_orca/orca_5_0_4_linux_x86-64_shared_openmpi411/otool_xtb /home/jang/cal_tmp/10_orca/Gen_chromophore/Gen_molecular_pairs_cal/mol_2_2.xyz/input_XTB.xyz --grad -c 0 -u 0 -P 4 --namespace /home/jang/cal_tmp/10_orca/Gen_chromophore/Gen_molecular_pairs_cal/mol_2_2.xyz/input --input /home/jang/cal_tmp/10_orca/Gen_chromophore/Gen_molecular_pairs_cal/mol_2_2.xyz/input_XTB.input.tmp --acc 1.000000
          hostname                   : node02
          calculation namespace      : /home/jang/cal_tmp/10_orca/Gen_chromophore/Gen_molecular_pairs_cal/mol_2_2.xyz/input
          coordinate file            : /home/jang/cal_tmp/10_orca/Gen_chromophore/Gen_molecular_pairs_cal/mol_2_2.xyz/input_XTB.xyz
          omp threads                :                     4

   ID    Z sym.   atoms
    1    7 N      1
    2    6 C      2-8, 10, 11, 13
    3    8 O      9, 12, 14, 19
    4    1 H      15-18, 20, 21

molecular fragmentation (1/2 indicates fragments):
111111111111111111222
# atoms in fragment 1/2:    18     3
 fragment masses (1/2) :      186.14       18.02
CMA distance (Bohr)    :  13.471
constraining FC (au)   :  0.0500

           -------------------------------------------------
          |                 G F N 2 - x T B                 |
           -------------------------------------------------

        Reference                      10.1021/acs.jctc.8b01176
      * Hamiltonian:
        H0-scaling (s, p, d)           1.850000    2.230000    2.230000
        zeta-weighting                 0.500000
      * Dispersion:
        s8                             2.700000
        a1                             0.520000
        a2                             5.000000
        s9                             5.000000
      * Repulsion:
        kExp                           1.500000    1.000000
        rExp                           1.000000
      * Coulomb:
        alpha                          2.000000
        third order                    shell-resolved
        anisotropic                    true
        a3                             3.000000
        a5                             4.000000
        cn-shift                       1.200000
        cn-exp                         4.000000
        max-rad                        5.000000


          ...................................................
          :                      SETUP                      :
          :.................................................:
          :  # basis functions                  66          :
          :  # atomic orbitals                  66          :
          :  # shells                           36          :
          :  # electrons                        75          :
          :  max. iterations                   250          :
          :  Hamiltonian                  GFN2-xTB          :
          :  restarted?                      false          :
          :  GBSA solvation                  false          :
          :  PC potential                    false          :
          :  electronic temp.          300.0000000     K    :
          :  accuracy                    1.0000000          :
          :  -> integral cutoff          0.2500000E+02      :
          :  -> integral neglect         0.1000000E-07      :
          :  -> SCF convergence          0.1000000E-05 Eh   :
          :  -> wf. convergence          0.1000000E-03 e    :
          :  Broyden damping             0.4000000          :
          ...................................................

 iter      E             dE          RMSdq      gap      omega  full diag
   1    -43.9719148 -0.439719E+02  0.628E+00    2.72       0.0  T
   2    -43.9317878  0.401270E-01  0.381E+00    1.57       1.0  T
   3    -43.9216575  0.101303E-01  0.331E+00    2.80       1.0  T
   4    -44.0628012 -0.141144E+00  0.153E+00    2.05       1.0  T
   5    -44.0920693 -0.292682E-01  0.747E-01    2.33       1.0  T
   6    -44.0939968 -0.192743E-02  0.591E-01    2.22       1.0  T
   7    -44.0945173 -0.520479E-03  0.310E-01    2.23       1.0  T
   8    -44.0952592 -0.741900E-03  0.787E-02    2.20       1.0  T
   9    -44.0953659 -0.106763E-03  0.328E-02    2.22       1.0  T
  10    -44.0953748 -0.884468E-05  0.157E-02    2.22       1.4  T
  11    -44.0953782 -0.343340E-05  0.400E-03    2.21       5.4  T
  12    -44.0953782 -0.426347E-07  0.224E-03    2.21       9.7  T
  13    -44.0953783 -0.231288E-07  0.112E-03    2.21      19.5  T
  14    -44.0953783 -0.422136E-08  0.449E-04    2.21      48.6  T
  15    -44.0953783 -0.251935E-08  0.194E-04    2.21     112.7  T

   *** convergence criteria satisfied after 15 iterations ***

         #    Occupation            Energy/Eh            Energy/eV
      -------------------------------------------------------------
         1        2.0000           -0.7848448             -21.3567
       ...           ...                  ...                  ...
        32        2.0000           -0.4776189             -12.9967
        33        2.0000           -0.4649159             -12.6510
        34        2.0000           -0.4606205             -12.5341
        35        2.0000           -0.4574414             -12.4476
        36        2.0000           -0.4515841             -12.2882
        37        1.9931           -0.4319808             -11.7548
        38        1.0069           -0.4225403             -11.4979 (HOMO)
        39                         -0.3412556              -9.2860 (LUMO)
        40                         -0.2966458              -8.0721
        41                         -0.2736423              -7.4462
        42                         -0.2525699              -6.8728
        43                         -0.2446627              -6.6576
       ...                                ...                  ...
        66                          1.0524908              28.6397
      -------------------------------------------------------------
                  HL-Gap            0.0812847 Eh            2.2119 eV
             Fermi-level           -0.4045793 Eh          -11.0092 eV

 SCC (total)                   0 d,  0 h,  0 min,  0.051 sec
 SCC setup                      ...        0 min,  0.000 sec (  0.542%)
 Dispersion                     ...        0 min,  0.000 sec (  0.622%)
 classical contributions        ...        0 min,  0.000 sec (  0.228%)
 integral evaluation            ...        0 min,  0.002 sec (  3.665%)
 iterations                     ...        0 min,  0.042 sec ( 82.244%)
 molecular gradient             ...        0 min,  0.006 sec ( 11.273%)
 printout                       ...        0 min,  0.001 sec (  1.253%)

         :::::::::::::::::::::::::::::::::::::::::::::::::::::
         ::                     SUMMARY                     ::
         :::::::::::::::::::::::::::::::::::::::::::::::::::::
         :: total energy             -43.528680132920 Eh    ::
         :: gradient norm              0.153411728956 Eh/a0 ::
         :: HOMO-LUMO gap              2.211869791108 eV    ::
         ::.................................................::
         :: SCC energy               -44.095378269169 Eh    ::
         :: -> isotropic ES            0.104669248779 Eh    ::
         :: -> anisotropic ES          0.002386927734 Eh    ::
         :: -> anisotropic XC          0.022667035723 Eh    ::
         :: -> dispersion             -0.018780206526 Eh    ::
         :: repulsion energy           0.566727016336 Eh    ::
         :: add. restraining           0.000000000000 Eh    ::
         :: total charge               0.000000000008 e     ::
         :::::::::::::::::::::::::::::::::::::::::::::::::::::


Property printout bound to 'properties.out'

           -------------------------------------------------
          | TOTAL ENERGY              -43.528680132920 Eh   |
          | GRADIENT NORM               0.153411728956 Eh/α |
          | HOMO-LUMO GAP               2.211869791108 eV   |
           -------------------------------------------------

------------------------------------------------------------------------
 * finished run on 2025/01/14 at 20:59:36.849     
------------------------------------------------------------------------
 total:
 * wall-time:     0 d,  0 h,  0 min,  0.302 sec
 *  cpu-time:     0 d,  0 h,  0 min,  0.482 sec
 * ratio c/w:     1.597 speedup
 SCF:
 * wall-time:     0 d,  0 h,  0 min,  0.052 sec
 *  cpu-time:     0 d,  0 h,  0 min,  0.199 sec
 * ratio c/w:     3.857 speedup


-------------------------   --------------------
FINAL SINGLE POINT ENERGY       -43.528680132920
-------------------------   --------------------

------------------------------------------------------------------------------
                         ORCA GEOMETRY RELAXATION STEP
------------------------------------------------------------------------------

Reading the OPT-File                    .... done
Getting information on internals        .... done
Copying old internal coords+grads       .... done
Making the new internal coordinates     .... (new redundants).... done
Validating the new internal coordinates .... (new redundants).... done
Calculating the B-matrix                .... done
Calculating the G,G- and P matrices     .... done
Transforming gradient to internals      .... done
Projecting the internal gradient        .... done
Number of atoms                         ....  21
Number of internal coordinates          .... 145
Current Energy                          ....   -43.528680133 Eh
Current gradient norm                   ....     0.153411729 Eh/bohr
Maximum allowed component of the step   ....  0.300
Current trust radius                    ....  0.300
Evaluating the initial hessian          ....  (Almloef) done
Projecting the Hessian                  .... done
Forming the augmented Hessian           .... done
Diagonalizing the augmented Hessian     .... done
Last element of RFO vector              ....  0.985624435
Lowest eigenvalues of augmented Hessian:
 -0.018037747  0.000376569  0.016527791  0.017479690  0.018392910
Length of the computed step             ....  0.171415290
The final length of the internal step   ....  0.171415290
Converting the step to cartesian space:
 Initial RMS(Int)=    0.0142352650
Transforming coordinates:
 Iter   0:  RMS(Cart)=    0.0348755776 RMS(Int)=    1.5653088914
 Iter   1:  RMS(Cart)=    0.0003318229 RMS(Int)=    0.0001466306
 Iter   2:  RMS(Cart)=    0.0000060453 RMS(Int)=    0.0000035989
 Iter   3:  RMS(Cart)=    0.0000004259 RMS(Int)=    0.0000002792
 Iter   4:  RMS(Cart)=    0.0000002020 RMS(Int)=    0.0000001341
 Iter   5:  RMS(Cart)=    0.0000000996 RMS(Int)=    0.0000000661
done
Storing new coordinates                 .... done

                                .--------------------.
          ----------------------|Geometry convergence|-------------------------
          Item                value                   Tolerance       Converged
          ---------------------------------------------------------------------
          RMS gradient        0.0092848641            0.0001000000      NO
          MAX gradient        0.0453354230            0.0003000000      NO
          RMS step            0.0142352650            0.0020000000      NO
          MAX step            0.0559635185            0.0040000000      NO
          ........................................................
          Max(Bonds)      0.0296      Max(Angles)    1.37
          Max(Dihed)        0.99      Max(Improp)    0.00
          ---------------------------------------------------------------------

The optimization has not yet converged - more geometry cycles are needed


    ---------------------------------------------------------------------------
                         Redundant Internal Coordinates
                            (Angstroem and degrees)

        Definition                    Value    dE/dq     Step     New-Value
    ----------------------------------------------------------------------------
     1. B(C   1,N   0)                1.1617  0.039370 -0.0159    1.1458   
     2. B(C   2,C   1)                1.4203  0.006610 -0.0061    1.4143   
     3. B(C   3,C   2)                1.3407 -0.018560  0.0132    1.3539   
     4. B(C   4,C   3)                1.4517  0.020922 -0.0207    1.4309   
     5. B(C   5,C   4)                1.3886 -0.019065  0.0152    1.4038   
     6. B(C   6,C   5)                1.4030  0.031615 -0.0296    1.3734   
     7. B(C   7,C   6)                1.4095 -0.028601  0.0252    1.4347   
     8. B(O   8,C   7)                1.2731  0.036995 -0.0223    1.2508   
     9. B(C   9,C   7)                1.4064 -0.026715  0.0237    1.4302   
    10. B(C  10,C   9)                1.3965  0.026177 -0.0217    1.3748   
    11. B(C  10,C   4)                1.3862 -0.023357  0.0190    1.4052   
    12. B(O  11,C  10)                1.4084  0.029338 -0.0293    1.3791   
    13. B(C  12,O  11)                1.3886  0.025985 -0.0243    1.3643   
    14. B(C  12,C   2)                1.4794  0.001606 -0.0019    1.4776   
    15. B(O  13,C  12)                1.2282  0.045335 -0.0232    1.2049   
    16. B(H  14,C   3)                1.0854  0.002764 -0.0038    1.0816   
    17. B(H  15,C   5)                1.0846  0.002702 -0.0057    1.0788   
    18. B(H  16,C   6)                1.0904  0.006092 -0.0079    1.0825   
    19. B(H  17,C   9)                1.0885  0.004997 -0.0070    1.0815   
    20. B(O  18,H  15)                4.4863  0.001371 -0.0024    4.4839   
    21. B(H  19,O  18)                0.9690  0.007215 -0.0073    0.9617   
    22. B(H  20,H  16)                4.8384  0.002760 -0.0060    4.8323   
    23. B(H  20,H  15)                3.8497 -0.002802  0.0044    3.8541   
    24. B(H  20,C   5)                4.7207 -0.000437 -0.0010    4.7197   
    25. B(H  20,O  18)                0.9690  0.005901 -0.0074    0.9616   
    26. L(N   0,C   1,C   2,C   3, 1) 176.97 -0.000485    0.06    177.02   
    27. L(N   0,C   1,C   2,C   3, 2) 180.00 -0.000023    0.00    180.00   
    28. A(C   1,C   2,C  12)          118.20  0.002387   -0.36    117.84   
    29. A(C   3,C   2,C  12)          121.54  0.000919   -0.03    121.51   
    30. A(C   1,C   2,C   3)          120.26 -0.003305    0.38    120.65   
    31. A(C   2,C   3,C   4)          119.98  0.004573   -0.44    119.55   
    32. A(C   4,C   3,H  14)          117.94 -0.002986    0.33    118.27   
    33. A(C   2,C   3,H  14)          122.08 -0.001587    0.10    122.18   
    34. A(C   5,C   4,C  10)          118.47 -0.006038    0.61    119.07   
    35. A(C   3,C   4,C   5)          122.33 -0.000757    0.11    122.44   
    36. A(C   3,C   4,C  10)          119.20  0.006795   -0.72    118.49   
    37. A(C   4,C   5,C   6)          119.63 -0.000875    0.32    119.95   
    38. A(C   6,C   5,H  15)          118.63 -0.001661    0.16    118.80   
    39. A(C   4,C   5,H  15)          121.73  0.002537   -0.48    121.25   
    40. A(H  15,C   5,H  20)           32.45 -0.000249    0.08     32.54   
    41. A(C   6,C   5,H  20)          102.95 -0.001580    0.07    103.02   
    42. A(C   4,C   5,H  20)          128.21  0.002390   -0.34    127.87   
    43. A(C   7,C   6,H  16)          117.89 -0.002306    0.44    118.32   
    44. A(C   5,C   6,H  16)          118.69 -0.004586    0.55    119.23   
    45. A(C   5,C   6,C   7)          123.43  0.006892   -0.98    122.44   
    46. A(O   8,C   7,C   9)          122.63  0.004986   -0.64    122.00   
    47. A(C   6,C   7,C   9)          114.97 -0.008946    1.15    116.12   
    48. A(C   6,C   7,O   8)          122.39  0.003960   -0.51    121.88   
    49. A(C  10,C   9,H  17)          119.44 -0.002155    0.22    119.66   
    50. A(C   7,C   9,H  17)          118.57 -0.005425    0.73    119.30   
    51. A(C   7,C   9,C  10)          122.00  0.007580   -0.96    121.04   
    52. A(C   4,C  10,O  11)          120.79 -0.005770    0.69    121.47   
    53. A(C   4,C  10,C   9)          121.51  0.001387   -0.14    121.37   
    54. A(C   9,C  10,O  11)          117.70  0.004382   -0.55    117.16   
    55. A(C  10,O  11,C  12)          121.33 -0.005382    0.46    121.79   
    56. A(O  11,C  12,O  13)          121.23  0.011659   -1.37    119.86   
    57. A(C   2,C  12,O  13)          121.61 -0.010525    1.33    122.95   
    58. A(C   2,C  12,O  11)          117.16 -0.001134    0.03    117.19   
    59. A(O  18,H  15,H  20)           10.09  0.000555   -0.06     10.03   
    60. A(C   5,H  15,H  20)          138.85  0.000049   -0.05    138.80   
    61. A(C   5,H  15,O  18)          130.87 -0.000334   -0.03    130.84   
    62. A(C   6,H  16,H  20)          104.40  0.002927   -0.24    104.15   
    63. A(H  19,O  18,H  20)          103.98 -0.002740    0.99    104.96   
    64. A(H  15,O  18,H  20)           44.09 -0.000470    0.17     44.26   
    65. A(H  15,O  18,H  19)          135.30 -0.002978    0.88    136.18   
    66. A(H  15,H  20,H  16)           30.05  0.003120   -0.30     29.75   
    67. A(C   5,H  20,H  16)           25.97  0.003097   -0.31     25.66   
    68. A(H  16,H  20,O  18)           96.49 -0.003093    0.19     96.67   
    69. A(C   5,H  20,H  15)            8.70  0.000201   -0.04      8.66   
    70. A(H  15,H  20,O  18)          125.83 -0.000085   -0.11    125.72   
    71. A(C   5,H  20,O  18)          119.08 -0.000176   -0.11    118.97   
    72. D(C   4,C   3,C   2,C   1)   -180.00 -0.000047    0.04   -179.96   
    73. D(H  14,C   3,C   2,C  12)   -180.00 -0.000008    0.02   -179.98   
    74. D(H  14,C   3,C   2,C   1)      0.00 -0.000034    0.04      0.04   
    75. D(C   4,C   3,C   2,C  12)     -0.00 -0.000022    0.02      0.02   
    76. D(C  10,C   4,C   3,C   2)      0.00  0.000062   -0.03     -0.03   
    77. D(C  10,C   4,C   3,H  14)   -180.00  0.000050   -0.04   -180.04   
    78. D(C   5,C   4,C   3,H  14)     -0.00  0.000022   -0.03     -0.03   
    79. D(C   5,C   4,C   3,C   2)   -180.00  0.000034   -0.02   -180.02   
    80. D(H  20,C   5,C   4,C  10)    140.88 -0.000718    0.13    141.01   
    81. D(H  15,C   5,C   4,C  10)   -180.00  0.000230   -0.01   -180.01   
    82. D(H  15,C   5,C   4,C   3)      0.00  0.000257   -0.02     -0.02   
    83. D(C   6,C   5,C   4,C  10)      0.00  0.000090   -0.02     -0.02   
    84. D(H  20,C   5,C   4,C   3)    -39.12 -0.000690    0.11    -39.00   
    85. D(C   6,C   5,C   4,C   3)   -180.00  0.000118   -0.04   -180.04   
    86. D(C   7,C   6,C   5,C   4)     -0.00  0.000095   -0.02     -0.02   
    87. D(H  16,C   6,C   5,H  20)     30.58 -0.001027    0.02     30.59   
    88. D(H  16,C   6,C   5,H  15)     -0.00 -0.000423   -0.06     -0.06   
    89. D(C   7,C   6,C   5,H  20)   -149.42 -0.000644    0.04   -149.39   
    90. D(H  16,C   6,C   5,C   4)    180.00 -0.000288   -0.04    179.96   
    91. D(C   7,C   6,C   5,H  15)    180.00 -0.000040   -0.04    179.96   
    92. D(C   9,C   7,C   6,H  16)   -180.00  0.000169    0.07   -179.93   
    93. D(C   9,C   7,C   6,C   5)      0.00 -0.000212    0.04      0.04   
    94. D(O   8,C   7,C   6,H  16)      0.00  0.000197    0.08      0.08   
    95. D(O   8,C   7,C   6,C   5)   -180.00 -0.000184    0.06   -179.94   
    96. D(H  17,C   9,C   7,O   8)      0.00  0.000037   -0.03     -0.03   
    97. D(H  17,C   9,C   7,C   6)    180.00  0.000066   -0.01    179.99   
    98. D(C  10,C   9,C   7,O   8)   -180.00  0.000124   -0.04   -180.04   
    99. D(C  10,C   9,C   7,C   6)     -0.00  0.000153   -0.03     -0.03   
   100. D(C   9,C  10,C   4,C   5)      0.00 -0.000148    0.04      0.04   
   101. D(C   9,C  10,C   4,C   3)    180.00 -0.000174    0.05    180.05   
   102. D(O  11,C  10,C   4,C   3)     -0.00 -0.000054    0.03      0.03   
   103. D(O  11,C  10,C   9,H  17)     -0.00 -0.000007   -0.00     -0.00   
   104. D(O  11,C  10,C   9,C   7)    180.00 -0.000095    0.01    180.01   
   105. D(C   4,C  10,C   9,H  17)    180.00  0.000109   -0.03    179.97   
   106. D(C   4,C  10,C   9,C   7)     -0.00  0.000021   -0.01     -0.01   
   107. D(O  11,C  10,C   4,C   5)   -180.00 -0.000027    0.01   -179.99   
   108. D(C  12,O  11,C  10,C   9)    180.00  0.000121   -0.03    179.97   
   109. D(C  12,O  11,C  10,C   4)     -0.00  0.000005   -0.00     -0.00   
   110. D(O  13,C  12,O  11,C  10)   -180.00  0.000024   -0.03   -180.03   
   111. D(C   2,C  12,O  11,C  10)      0.00  0.000035   -0.02     -0.02   
   112. D(O  13,C  12,C   2,C   3)    180.00 -0.000015    0.02    180.02   
   113. D(O  13,C  12,C   2,C   1)     -0.00  0.000009   -0.00     -0.00   
   114. D(O  11,C  12,C   2,C   3)     -0.00 -0.000026    0.01      0.01   
   115. D(O  11,C  12,C   2,C   1)    180.00 -0.000002   -0.01    179.99   
   116. D(H  20,H  15,C   5,C   6)     67.50 -0.000645   -0.06     67.44   
   117. D(H  20,H  15,C   5,C   4)   -112.50 -0.000782   -0.08   -112.58   
   118. D(O  18,H  15,C   5,H  20)     -8.73 -0.000566    0.10     -8.62   
   119. D(O  18,H  15,C   5,C   6)     58.77 -0.001211    0.04     58.81   
   120. D(O  18,H  15,C   5,C   4)   -121.23 -0.001349    0.03   -121.20   
   121. D(H  20,H  16,C   6,C   7)    150.04  0.000200   -0.02    150.02   
   122. D(H  20,H  16,C   6,C   5)    -29.96  0.000562   -0.01    -29.96   
   123. D(H  20,O  18,H  15,C   5)    145.25 -0.000355    0.20    145.44   
   124. D(H  19,O  18,H  15,H  20)    -56.65  0.001731   -0.99    -57.64   
   125. D(H  19,O  18,H  15,C   5)     88.59  0.001376   -0.80     87.80   
   126. D(H  16,H  20,C   5,H  15)    110.41  0.000277    0.14    110.55   
   127. D(H  16,H  20,C   5,C   6)    -13.28  0.000692   -0.00    -13.28   
   128. D(H  16,H  20,C   5,C   4)   -159.03  0.001461   -0.24   -159.28   
   129. D(H  15,H  20,C   5,C   6)   -123.69  0.000415   -0.15   -123.84   
   130. D(H  15,H  20,C   5,C   4)     90.55  0.001183   -0.39     90.17   
   131. D(O  18,H  20,C   5,H  15)    142.57 -0.000628    0.22    142.79   
   132. D(O  18,H  20,C   5,C   6)     18.88 -0.000213    0.08     18.96   
   133. D(O  18,H  20,H  15,C   5)    -40.93 -0.000743    0.27    -40.66   
   134. D(O  18,H  20,C   5,C   4)   -126.88  0.000555   -0.16   -127.04   
   135. D(H  16,H  20,O  18,H  15)      7.06  0.000866   -0.05      7.01   
   136. D(H  16,H  20,O  18,H  19)    149.79 -0.000038   -0.06    149.74   
   137. D(H  15,H  20,O  18,H  19)    142.74 -0.000904   -0.01    142.73   
   138. D(C   5,H  20,O  18,H  15)     -6.51 -0.000236    0.07     -6.44   
   139. D(C   5,H  20,O  18,H  19)    136.23 -0.001140    0.06    136.29   
   140. D(H  15,H  20,H  16,C   6)     33.73  0.000991   -0.20     33.54   
   141. D(C   5,H  20,H  16,C   6)     17.30  0.002226   -0.26     17.03   
   142. D(O  18,H  20,H  16,C   6)   -134.79  0.001329   -0.15   -134.94   
   143. D(H  16,H  20,H  15,O  18)    -14.11 -0.000491   -0.03    -14.14   
   144. D(H  16,H  20,H  15,C   5)    -55.04 -0.001234    0.24    -54.80   
   145. D(C   5,H  20,H  15,O  18)     40.93  0.000743   -0.27     40.66   
    ----------------------------------------------------------------------------

         *************************************************************
         *                GEOMETRY OPTIMIZATION CYCLE   2            *
         *************************************************************
---------------------------------
CARTESIAN COORDINATES (ANGSTROEM)
---------------------------------
  N    -0.943394   -4.655897   -0.269487
  C    -0.794779   -3.545046   -0.030997
  C    -0.580514   -2.165838    0.197135
  C     0.007713   -1.393456   -0.746474
  C     0.213772   -0.000763   -0.490532
  C     0.817583    0.855287   -1.425080
  C     0.989609    2.184668   -1.126305
  C     0.571954    2.752985    0.123082
  O     0.732803    3.965667    0.383883
  C    -0.038603    1.852628    1.051479
  C    -0.206394    0.523238    0.743873
  O    -0.804750   -0.272846    1.697920
  C    -1.018101   -1.604457    1.491926
  O    -1.543588   -2.267661    2.349758
  H     0.331797   -1.792942   -1.697915
  H     1.153340    0.490303   -2.383192
  H     1.457166    2.834149   -1.855231
  H    -0.372779    2.226552    2.009710
  O     5.220438    0.519209   -4.270863
  H     5.989611   -0.058015   -4.270487
  H     4.464325   -0.074837   -4.273145

----------------------------
CARTESIAN COORDINATES (A.U.)
----------------------------
  NO LB    ZA    FRAG    MASS        X           Y           Z
   0 N   7.0000    0    14.007   -1.782757   -8.798370   -0.509257
   1 C   6.0000    0    12.011   -1.501914   -6.699167   -0.058576
   2 C   6.0000    0    12.011   -1.097012   -4.092841    0.372531
   3 C   6.0000    0    12.011    0.014576   -2.633250   -1.410631
   4 C   6.0000    0    12.011    0.403970   -0.001442   -0.926972
   5 C   6.0000    0    12.011    1.545007    1.616258   -2.693011
   6 C   6.0000    0    12.011    1.870089    4.128423   -2.128407
   7 C   6.0000    0    12.011    1.080837    5.202388    0.232591
   8 O   8.0000    0    15.999    1.384798    7.494025    0.725434
   9 C   6.0000    0    12.011   -0.072949    3.500960    1.987007
  10 C   6.0000    0    12.011   -0.390027    0.988776    1.405717
  11 O   8.0000    0    15.999   -1.520757   -0.515604    3.208603
  12 C   6.0000    0    12.011   -1.923932   -3.031984    2.819332
  13 O   8.0000    0    15.999   -2.916959   -4.285258    4.440399
  14 H   1.0000    0     1.008    0.627005   -3.388169   -3.208595
  15 H   1.0000    0     1.008    2.179497    0.926538   -4.503580
  16 H   1.0000    0     1.008    2.753644    5.355765   -3.505879
  17 H   1.0000    0     1.008   -0.704451    4.207573    3.797802
  18 O   8.0000    0    15.999    9.865199    0.981163   -8.070761
  19 H   1.0000    0     1.008   11.318725   -0.109632   -8.070051
  20 H   1.0000    0     1.008    8.436351   -0.141421   -8.075074

      -----------------------------------------------------------      
     |                   =====================                   |     
     |                           x T B                           |     
     |                   =====================                   |     
     |                         S. Grimme                         |     
     |          Mulliken Center for Theoretical Chemistry        |     
     |                    University of Bonn                     |     
      -----------------------------------------------------------      

   * xtb version 6.6.1 (8d0f1dd) compiled by 'stahn@M-Bot' on 2023-08-01

   xtb is free software: you can redistribute it and/or modify it under
   the terms of the GNU Lesser General Public License as published by
   the Free Software Foundation, either version 3 of the License, or
   (at your option) any later version.
   
   xtb is distributed in the hope that it will be useful,
   but WITHOUT ANY WARRANTY; without even the implied warranty of
   MERCHANTABILITY or FITNESS FOR A PARTICULAR PURPOSE.  See the
   GNU Lesser General Public License for more details.
   
   Cite this work as:
   * C. Bannwarth, E. Caldeweyher, S. Ehlert, A. Hansen, P. Pracht,
     J. Seibert, S. Spicher, S. Grimme, WIREs Comput. Mol. Sci., 2020, 11,
     e01493. DOI: 10.1002/wcms.1493
   
   for GFN2-xTB:
   * C. Bannwarth, S. Ehlert and S. Grimme., J. Chem. Theory Comput., 2019,
     15, 1652-1671. DOI: 10.1021/acs.jctc.8b01176
   for GFN1-xTB:
   * S. Grimme, C. Bannwarth, P. Shushkov, J. Chem. Theory Comput., 2017,
     13, 1989-2009. DOI: 10.1021/acs.jctc.7b00118
   for GFN0-xTB:
   * P. Pracht, E. Caldeweyher, S. Ehlert, S. Grimme, ChemRxiv, 2019, preprint.
     DOI: 10.26434/chemrxiv.8326202.v1
   for GFN-FF:
   * S. Spicher and S. Grimme, Angew. Chem. Int. Ed., 2020, 59, 15665-15673.
     DOI: 10.1002/anie.202004239
   
   for ALPB and GBSA implicit solvation:
   * S. Ehlert, M. Stahn, S. Spicher, S. Grimme, J. Chem. Theory Comput.,
     2021, 17, 4250-4261. DOI: 10.1021/acs.jctc.1c00471
   
   for DFT-D4:
   * E. Caldeweyher, C. Bannwarth and S. Grimme, J. Chem. Phys., 2017,
     147, 034112. DOI: 10.1063/1.4993215
   * E. Caldeweyher, S. Ehlert, A. Hansen, H. Neugebauer, S. Spicher,
     C. Bannwarth and S. Grimme, J. Chem. Phys., 2019, 150, 154122.
     DOI: 10.1063/1.5090222
   * E. Caldeweyher, J.-M. Mewes, S. Ehlert and S. Grimme, Phys. Chem. Chem. Phys.
     2020, 22, 8499-8512. DOI: 10.1039/D0CP00502A
   
   for sTDA-xTB:
   * S. Grimme and C. Bannwarth, J. Chem. Phys., 2016, 145, 054103.
     DOI: 10.1063/1.4959605
   
   in the mass-spec context:
   * V. Asgeirsson, C. Bauer and S. Grimme, Chem. Sci., 2017, 8, 4879.
     DOI: 10.1039/c7sc00601b
   * J. Koopman and S. Grimme, ACS Omega 2019, 4, 12, 15120-15133.
     DOI: 10.1021/acsomega.9b02011
   
   for metadynamics refer to:
   * S. Grimme, J. Chem. Theory Comput., 2019, 155, 2847-2862
     DOI: 10.1021/acs.jctc.9b00143
   
   for SPH calculations refer to:
   * S. Spicher and S. Grimme, J. Chem. Theory Comput., 2021, 17, 1701-1714
     DOI: 10.1021/acs.jctc.0c01306
   
   with help from (in alphabetical order)
   P. Atkinson, C. Bannwarth, F. Bohle, G. Brandenburg, E. Caldeweyher
   M. Checinski, S. Dohm, S. Ehlert, S. Ehrlich, I. Gerasimov, C. Hölzer
   A. Katbashev, J. Koopman, C. Lavigne, S. Lehtola, F. März, M. Müller,
   F. Musil, H. Neugebauer, J. Pisarek, C. Plett, P. Pracht, F. Pultar,
   J. Seibert, P. Shushkov, S. Spicher, M. Stahn, M. Steiner, T. Strunk,
   J. Stückrath, T. Rose, and J. Unsleber
   
 * started run on 2025/01/14 at 20:59:55.587     

           -------------------------------------------------
          |                Calculation Setup                |
           -------------------------------------------------

          program call               : /home/jang/cal_tmp/10_orca/orca_5_0_4_linux_x86-64_shared_openmpi411/otool_xtb /home/jang/cal_tmp/10_orca/Gen_chromophore/Gen_molecular_pairs_cal/mol_2_2.xyz/input_XTB.xyz --grad -c 0 -u 0 -P 4 --namespace /home/jang/cal_tmp/10_orca/Gen_chromophore/Gen_molecular_pairs_cal/mol_2_2.xyz/input --input /home/jang/cal_tmp/10_orca/Gen_chromophore/Gen_molecular_pairs_cal/mol_2_2.xyz/input_XTB.input.tmp --acc 1.000000
          hostname                   : node02
          calculation namespace      : /home/jang/cal_tmp/10_orca/Gen_chromophore/Gen_molecular_pairs_cal/mol_2_2.xyz/input
          coordinate file            : /home/jang/cal_tmp/10_orca/Gen_chromophore/Gen_molecular_pairs_cal/mol_2_2.xyz/input_XTB.xyz
          omp threads                :                     4

   ID    Z sym.   atoms
    1    7 N      1
    2    6 C      2-8, 10, 11, 13
    3    8 O      9, 12, 14, 19
    4    1 H      15-18, 20, 21

molecular fragmentation (1/2 indicates fragments):
111111111111111111222
# atoms in fragment 1/2:    18     3
 fragment masses (1/2) :      186.14       18.02
CMA distance (Bohr)    :  13.493
constraining FC (au)   :  0.0500

           -------------------------------------------------
          |                 G F N 2 - x T B                 |
           -------------------------------------------------

        Reference                      10.1021/acs.jctc.8b01176
      * Hamiltonian:
        H0-scaling (s, p, d)           1.850000    2.230000    2.230000
        zeta-weighting                 0.500000
      * Dispersion:
        s8                             2.700000
        a1                             0.520000
        a2                             5.000000
        s9                             5.000000
      * Repulsion:
        kExp                           1.500000    1.000000
        rExp                           1.000000
      * Coulomb:
        alpha                          2.000000
        third order                    shell-resolved
        anisotropic                    true
        a3                             3.000000
        a5                             4.000000
        cn-shift                       1.200000
        cn-exp                         4.000000
        max-rad                        5.000000

q/qsh data taken from xtbrestart
CAMM data taken from xtbrestart

          ...................................................
          :                      SETUP                      :
          :.................................................:
          :  # basis functions                  66          :
          :  # atomic orbitals                  66          :
          :  # shells                           36          :
          :  # electrons                        75          :
          :  max. iterations                   250          :
          :  Hamiltonian                  GFN2-xTB          :
          :  restarted?                       true          :
          :  GBSA solvation                  false          :
          :  PC potential                    false          :
          :  electronic temp.          300.0000000     K    :
          :  accuracy                    1.0000000          :
          :  -> integral cutoff          0.2500000E+02      :
          :  -> integral neglect         0.1000000E-07      :
          :  -> SCF convergence          0.1000000E-05 Eh   :
          :  -> wf. convergence          0.1000000E-03 e    :
          :  Broyden damping             0.4000000          :
          ...................................................

 iter      E             dE          RMSdq      gap      omega  full diag
   1    -44.1340684 -0.441341E+02  0.280E-01    2.22       0.0  T
   2    -44.1343712 -0.302814E-03  0.178E-01    2.22       1.0  T
   3    -44.1344210 -0.497763E-04  0.992E-02    2.22       1.0  T
   4    -44.1344434 -0.223715E-04  0.289E-02    2.22       1.0  T
   5    -44.1344563 -0.129070E-04  0.108E-02    2.22       2.0  T
   6    -44.1344583 -0.199045E-05  0.454E-03    2.22       4.8  T
   7    -44.1344584 -0.149715E-06  0.272E-03    2.22       8.0  T
   8    -44.1344585 -0.487049E-07  0.123E-03    2.22      17.7  T
   9    -44.1344585 -0.174700E-07  0.486E-04    2.22      44.9  T
  10    -44.1344585 -0.344925E-08  0.218E-04    2.22     100.1  T

   *** convergence criteria satisfied after 10 iterations ***

         #    Occupation            Energy/Eh            Energy/eV
      -------------------------------------------------------------
         1        2.0000           -0.7919699             -21.5506
       ...           ...                  ...                  ...
        32        2.0000           -0.4771444             -12.9838
        33        2.0000           -0.4631858             -12.6039
        34        2.0000           -0.4604836             -12.5304
        35        2.0000           -0.4580778             -12.4649
        36        2.0000           -0.4499529             -12.2438
        37        1.9966           -0.4295603             -11.6889
        38        1.0034           -0.4187451             -11.3946 (HOMO)
        39                         -0.3372168              -9.1761 (LUMO)
        40                         -0.2897582              -7.8847
        41                         -0.2655443              -7.2258
        42                         -0.2441254              -6.6430
        43                         -0.2413263              -6.5668
       ...                                ...                  ...
        66                          1.1340990              30.8604
      -------------------------------------------------------------
                  HL-Gap            0.0815283 Eh            2.2185 eV
             Fermi-level           -0.4010668 Eh          -10.9136 eV

 SCC (total)                   0 d,  0 h,  0 min,  0.027 sec
 SCC setup                      ...        0 min,  0.000 sec (  1.721%)
 Dispersion                     ...        0 min,  0.001 sec (  2.853%)
 classical contributions        ...        0 min,  0.000 sec (  0.354%)
 integral evaluation            ...        0 min,  0.002 sec (  8.297%)
 iterations                     ...        0 min,  0.019 sec ( 72.120%)
 molecular gradient             ...        0 min,  0.004 sec ( 13.345%)
 printout                       ...        0 min,  0.000 sec (  1.040%)

         :::::::::::::::::::::::::::::::::::::::::::::::::::::
         ::                     SUMMARY                     ::
         :::::::::::::::::::::::::::::::::::::::::::::::::::::
         :: total energy             -43.540921975845 Eh    ::
         :: gradient norm              0.069585437410 Eh/a0 ::
         :: HOMO-LUMO gap              2.218497203305 eV    ::
         ::.................................................::
         :: SCC energy               -44.134458501642 Eh    ::
         :: -> isotropic ES            0.103231200337 Eh    ::
         :: -> anisotropic ES          0.002460458078 Eh    ::
         :: -> anisotropic XC          0.021667502825 Eh    ::
         :: -> dispersion             -0.018894185690 Eh    ::
         :: repulsion energy           0.593562063651 Eh    ::
         :: add. restraining           0.000000000000 Eh    ::
         :: total charge               0.000000000002 e     ::
         :::::::::::::::::::::::::::::::::::::::::::::::::::::


Property printout bound to 'properties.out'

           -------------------------------------------------
          | TOTAL ENERGY              -43.540921975845 Eh   |
          | GRADIENT NORM               0.069585437410 Eh/α |
          | HOMO-LUMO GAP               2.218497203305 eV   |
           -------------------------------------------------

------------------------------------------------------------------------
 * finished run on 2025/01/14 at 20:59:56.081     
------------------------------------------------------------------------
 total:
 * wall-time:     0 d,  0 h,  0 min,  0.492 sec
 *  cpu-time:     0 d,  0 h,  0 min,  0.982 sec
 * ratio c/w:     1.995 speedup
 SCF:
 * wall-time:     0 d,  0 h,  0 min,  0.027 sec
 *  cpu-time:     0 d,  0 h,  0 min,  0.104 sec
 * ratio c/w:     3.845 speedup


-------------------------   --------------------
FINAL SINGLE POINT ENERGY       -43.540921975850
-------------------------   --------------------

------------------------------------------------------------------------------
                         ORCA GEOMETRY RELAXATION STEP
------------------------------------------------------------------------------

Reading the OPT-File                    .... done
Getting information on internals        .... done
Copying old internal coords+grads       .... done
Making the new internal coordinates     .... (new redundants).... done
Validating the new internal coordinates .... (new redundants).... done
Calculating the B-matrix                .... done
Calculating the G,G- and P matrices     .... done
Transforming gradient to internals      .... done
Projecting the internal gradient        .... done
Number of atoms                         ....  21
Number of internal coordinates          .... 145
Current Energy                          ....   -43.540921976 Eh
Current gradient norm                   ....     0.069585437 Eh/bohr
Maximum allowed component of the step   ....  0.300
Current trust radius                    ....  0.300
Updating the Hessian (BFGS)             .... done
Forming the augmented Hessian           .... done
Diagonalizing the augmented Hessian     .... done
Last element of RFO vector              ....  0.991858361
Lowest eigenvalues of augmented Hessian:
 -0.004840123  0.000376564  0.016527796  0.017480108  0.018392920
Length of the computed step             ....  0.128391271
The final length of the internal step   ....  0.128391271
Converting the step to cartesian space:
 Initial RMS(Int)=    0.0106623147
Transforming coordinates:
 Iter   0:  RMS(Cart)=    0.0178268811 RMS(Int)=    0.5218832667
 Iter   1:  RMS(Cart)=    0.0001664648 RMS(Int)=    0.0000964129
 Iter   2:  RMS(Cart)=    0.0000037362 RMS(Int)=    0.0000017166
 Iter   3:  RMS(Cart)=    0.0000008060 RMS(Int)=    0.0000005374
 Iter   4:  RMS(Cart)=    0.0000003992 RMS(Int)=    0.0000002666
 Iter   5:  RMS(Cart)=    0.0000001984 RMS(Int)=    0.0000001325
 Iter   6:  RMS(Cart)=    0.0000000986 RMS(Int)=    0.0000000658
done
Storing new coordinates                 .... done

                                .--------------------.
          ----------------------|Geometry convergence|-------------------------
          Item                value                   Tolerance       Converged
          ---------------------------------------------------------------------
          Energy change      -0.0122418429            0.0000050000      NO
          RMS gradient        0.0034513421            0.0001000000      NO
          MAX gradient        0.0201027356            0.0003000000      NO
          RMS step            0.0106623147            0.0020000000      NO
          MAX step            0.0389238738            0.0040000000      NO
          ........................................................
          Max(Bonds)      0.0206      Max(Angles)    1.28
          Max(Dihed)        1.24      Max(Improp)    0.00
          ---------------------------------------------------------------------

The optimization has not yet converged - more geometry cycles are needed


    ---------------------------------------------------------------------------
                         Redundant Internal Coordinates
                            (Angstroem and degrees)

        Definition                    Value    dE/dq     Step     New-Value
    ----------------------------------------------------------------------------
     1. B(C   1,N   0)                1.1458  0.000223 -0.0013    1.1445   
     2. B(C   2,C   1)                1.4143  0.002226 -0.0036    1.4107   
     3. B(C   3,C   2)                1.3539 -0.009875  0.0118    1.3657   
     4. B(C   4,C   3)                1.4309  0.010126 -0.0172    1.4137   
     5. B(C   5,C   4)                1.4038 -0.008881  0.0120    1.4158   
     6. B(C   6,C   5)                1.3734  0.011419 -0.0186    1.3548   
     7. B(C   7,C   6)                1.4347 -0.013520  0.0203    1.4550   
     8. B(O   8,C   7)                1.2508  0.020103 -0.0204    1.2304   
     9. B(C   9,C   7)                1.4302 -0.012376  0.0189    1.4490   
    10. B(C  10,C   9)                1.3748  0.005597 -0.0084    1.3664   
    11. B(C  10,C   4)                1.4053 -0.011008  0.0151    1.4204   
    12. B(O  11,C  10)                1.3791  0.011958 -0.0206    1.3585   
    13. B(C  12,O  11)                1.3642  0.005329 -0.0095    1.3547   
    14. B(C  12,C   2)                1.4775 -0.000569  0.0010    1.4785   
    15. B(O  13,C  12)                1.2049  0.008385 -0.0084    1.1966   
    16. B(H  14,C   3)                1.0816  0.000418 -0.0011    1.0805   
    17. B(H  15,C   5)                1.0789 -0.000266 -0.0005    1.0784   
    18. B(H  16,C   6)                1.0825  0.001752 -0.0040    1.0785   
    19. B(H  17,C   9)                1.0815  0.001541 -0.0038    1.0777   
    20. B(O  18,H  15)                4.4839  0.000118 -0.0023    4.4816   
    21. B(H  19,O  18)                0.9617  0.001223 -0.0024    0.9593   
    22. B(H  20,H  16)                4.8323  0.000629  0.0082    4.8405   
    23. B(H  20,H  15)                3.8541 -0.000513  0.0014    3.8555   
    24. B(H  20,C   5)                4.7197 -0.000023 -0.0010    4.7186   
    25. B(H  20,O  18)                0.9616  0.001062 -0.0026    0.9589   
    26. L(N   0,C   1,C   2,C   3, 1) 177.02 -0.000987    0.18    177.20   
    27. L(N   0,C   1,C   2,C   3, 2) 180.00 -0.000024    0.00    180.01   
    28. A(C   1,C   2,C  12)          117.84  0.001041   -0.27    117.57   
    29. A(C   3,C   2,C  12)          121.51  0.000791   -0.09    121.42   
    30. A(C   1,C   2,C   3)          120.65 -0.001832    0.36    121.01   
    31. A(C   2,C   3,C   4)          119.55  0.000187    0.03    119.57   
    32. A(C   4,C   3,H  14)          118.27 -0.001812    0.41    118.68   
    33. A(C   2,C   3,H  14)          122.18  0.001625   -0.44    121.74   
    34. A(C   5,C   4,C  10)          119.08 -0.000913    0.08    119.16   
    35. A(C   3,C   4,C   5)          122.44 -0.000913    0.24    122.68   
    36. A(C   3,C   4,C  10)          118.49  0.001826   -0.32    118.16   
    37. A(C   4,C   5,C   6)          119.95 -0.002162    0.64    120.60   
    38. A(C   6,C   5,H  15)          118.80 -0.000439    0.42    119.22   
    39. A(C   4,C   5,H  15)          121.25  0.002601   -1.07    120.18   
    40. A(H  15,C   5,H  20)           32.54 -0.000514    0.17     32.71   
    41. A(C   6,C   5,H  20)          103.02 -0.000134    0.18    103.20   
    42. A(C   4,C   5,H  20)          127.87  0.002218   -0.74    127.13   
    43. A(C   7,C   6,H  16)          118.32  0.000845   -0.19    118.14   
    44. A(C   5,C   6,H  16)          119.23 -0.002865    0.81    120.05   
    45. A(C   5,C   6,C   7)          122.44  0.002021   -0.62    121.82   
    46. A(O   8,C   7,C   9)          122.00  0.000840   -0.22    121.78   
    47. A(C   6,C   7,C   9)          116.12 -0.001529    0.40    116.52   
    48. A(C   6,C   7,O   8)          121.88  0.000689   -0.18    121.70   
    49. A(C  10,C   9,H  17)          119.66 -0.001380    0.29    119.95   
    50. A(C   7,C   9,H  17)          119.30 -0.000354    0.06    119.37   
    51. A(C   7,C   9,C  10)          121.04  0.001734   -0.35    120.69   
    52. A(C   4,C  10,O  11)          121.48  0.000053   -0.04    121.44   
    53. A(C   4,C  10,C   9)          121.37  0.000850   -0.15    121.22   
    54. A(C   9,C  10,O  11)          117.15 -0.000903    0.19    117.34   
    55. A(C  10,O  11,C  12)          121.79 -0.005365    1.00    122.79   
    56. A(O  11,C  12,O  13)          119.86  0.003421   -0.70    119.17   
    57. A(C   2,C  12,O  13)          122.95 -0.005929    1.27    124.22   
    58. A(C   2,C  12,O  11)          117.18  0.002508   -0.57    116.61   
    59. A(O  18,H  15,H  20)           10.03  0.000115   -0.00     10.02   
    60. A(C   5,H  15,H  20)          138.80  0.000646   -0.20    138.60   
    61. A(C   5,H  15,O  18)          130.84  0.000595   -0.25    130.59   
    62. A(C   6,H  16,H  20)          104.15  0.001975   -0.70    103.45   
    63. A(H  19,O  18,H  20)          104.96 -0.002255    1.28    106.24   
    64. A(H  15,O  18,H  20)           44.26 -0.000006    0.15     44.41   
    65. A(H  15,O  18,H  19)          136.17 -0.002175    1.11    137.28   
    66. A(H  15,H  20,H  16)           29.74  0.000803   -0.08     29.67   
    67. A(C   5,H  20,H  16)           25.66  0.000933   -0.16     25.49   
    68. A(H  16,H  20,O  18)           96.68 -0.000863   -0.08     96.59   
    69. A(C   5,H  20,H  15)            8.66 -0.000132    0.03      8.69   
    70. A(H  15,H  20,O  18)          125.72 -0.000109   -0.15    125.57   
    71. A(C   5,H  20,O  18)          118.97  0.000044   -0.22    118.75   
    72. D(C   4,C   3,C   2,C   1)   -179.96 -0.000029    0.03   -179.93   
    73. D(H  14,C   3,C   2,C  12)   -179.98 -0.000017    0.03   -179.95   
    74. D(H  14,C   3,C   2,C   1)      0.04 -0.000026    0.05      0.09   
    75. D(C   4,C   3,C   2,C  12)      0.02 -0.000020    0.01      0.03   
    76. D(C  10,C   4,C   3,C   2)     -0.03  0.000049   -0.05     -0.08   
    77. D(C  10,C   4,C   3,H  14)    179.96  0.000047   -0.06    179.89   
    78. D(C   5,C   4,C   3,H  14)     -0.03 -0.000012   -0.05     -0.08   
    79. D(C   5,C   4,C   3,C   2)    179.98 -0.000009   -0.04    179.94   
    80. D(H  20,C   5,C   4,C  10)    141.01 -0.000467    0.25    141.26   
    81. D(H  15,C   5,C   4,C  10)    179.99  0.000155   -0.06    179.94   
    82. D(H  15,C   5,C   4,C   3)     -0.02  0.000214   -0.07     -0.09   
    83. D(C   6,C   5,C   4,C  10)     -0.02 -0.000114   -0.03     -0.06   
    84. D(H  20,C   5,C   4,C   3)    -39.00 -0.000407    0.24    -38.76   
    85. D(C   6,C   5,C   4,C   3)    179.96 -0.000055   -0.05    179.92   
    86. D(C   7,C   6,C   5,C   4)     -0.02  0.000246   -0.00     -0.02   
    87. D(H  16,C   6,C   5,H  20)     30.59 -0.000579    0.02     30.61   
    88. D(H  16,C   6,C   5,H  15)     -0.06 -0.000059   -0.12     -0.18   
    89. D(C   7,C   6,C   5,H  20)   -149.39 -0.000535    0.16   -149.23   
    90. D(H  16,C   6,C   5,C   4)    179.96  0.000203   -0.14    179.82   
    91. D(C   7,C   6,C   5,H  15)    179.96 -0.000015    0.02    179.99   
    92. D(C   9,C   7,C   6,H  16)   -179.93 -0.000167    0.17   -179.77   
    93. D(C   9,C   7,C   6,C   5)      0.05 -0.000211    0.03      0.07   
    94. D(O   8,C   7,C   6,H  16)      0.08 -0.000073    0.19      0.27   
    95. D(O   8,C   7,C   6,C   5)   -179.94 -0.000117    0.05   -179.89   
    96. D(H  17,C   9,C   7,O   8)     -0.03 -0.000024   -0.03     -0.06   
    97. D(H  17,C   9,C   7,C   6)    179.99  0.000071   -0.01    179.98   
    98. D(C  10,C   9,C   7,O   8)    179.96 -0.000047   -0.04    179.92   
    99. D(C  10,C   9,C   7,C   6)     -0.03  0.000047   -0.02     -0.05   
   100. D(C   9,C  10,C   4,C   5)      0.04 -0.000046    0.04      0.08   
   101. D(C   9,C  10,C   4,C   3)   -179.95 -0.000103    0.06   -179.89   
   102. D(O  11,C  10,C   4,C   3)      0.03 -0.000042    0.04      0.07   
   103. D(O  11,C  10,C   9,H  17)     -0.00 -0.000007   -0.01     -0.02   
   104. D(O  11,C  10,C   9,C   7)   -179.99  0.000017   -0.00   -179.99   
   105. D(C   4,C  10,C   9,H  17)    179.97  0.000052   -0.02    179.95   
   106. D(C   4,C  10,C   9,C   7)     -0.01  0.000075   -0.01     -0.03   
   107. D(O  11,C  10,C   4,C   5)   -179.99  0.000014    0.03   -179.96   
   108. D(C  12,O  11,C  10,C   9)    179.97  0.000059   -0.01    179.96   
   109. D(C  12,O  11,C  10,C   4)     -0.00 -0.000000    0.00      0.00   
   110. D(O  13,C  12,O  11,C  10)    179.97  0.000011   -0.01    179.96   
   111. D(C   2,C  12,O  11,C  10)     -0.02  0.000030   -0.04     -0.06   
   112. D(O  13,C  12,C   2,C   3)   -179.98 -0.000001    0.00   -179.98   
   113. D(O  13,C  12,C   2,C   1)     -0.00  0.000007   -0.02     -0.02   
   114. D(O  11,C  12,C   2,C   3)      0.01 -0.000021    0.03      0.04   
   115. D(O  11,C  12,C   2,C   1)    179.99 -0.000012    0.01    180.00   
   116. D(H  20,H  15,C   5,C   6)     67.44 -0.000097   -0.19     67.25   
   117. D(H  20,H  15,C   5,C   4)   -112.58 -0.000362   -0.17   -112.75   
   118. D(O  18,H  15,C   5,H  20)     -8.62 -0.000267    0.13     -8.50   
   119. D(O  18,H  15,C   5,C   6)     58.81 -0.000363   -0.07     58.75   
   120. D(O  18,H  15,C   5,C   4)   -121.20 -0.000629   -0.04   -121.25   
   121. D(H  20,H  16,C   6,C   7)    150.02  0.000259    0.04    150.06   
   122. D(H  20,H  16,C   6,C   5)    -29.96  0.000301    0.17    -29.79   
   123. D(H  20,O  18,H  15,C   5)    145.44 -0.000256    0.39    145.83   
   124. D(H  19,O  18,H  15,H  20)    -57.65  0.001270   -1.24    -58.89   
   125. D(H  19,O  18,H  15,C   5)     87.79  0.001014   -0.85     86.94   
[...]
    48. A(C   4,C  10,C   9)          121.02 -0.000003    0.00    121.02   
    49. A(C   9,C  10,O  11)          118.18  0.000004   -0.00    118.18   
    50. A(C  10,O  11,C  12)          123.54 -0.000001   -0.00    123.54   
    51. A(O  11,C  12,O  13)          118.84 -0.000015    0.01    118.85   
    52. A(C   2,C  12,O  13)          125.20  0.000011   -0.01    125.19   
    53. A(C   2,C  12,O  11)          115.96  0.000004   -0.00    115.96   
    54. A(O  18,H  15,H  19)           10.52  0.000004   -0.01     10.51   
    55. A(C   5,H  15,H  19)          128.26 -0.000045    0.02    128.27   
    56. A(C   5,H  15,O  18)          117.74 -0.000049    0.01    117.76   
    57. A(H  19,O  18,H  20)          106.75 -0.000010    0.01    106.77   
    58. A(H  15,O  18,H  20)          134.83  0.000020   -0.09    134.74   
    59. A(H  15,O  18,H  19)          118.42 -0.000010    0.07    118.49   
    60. A(H  15,H  19,O  18)           51.06  0.000006   -0.06     51.00   
    61. D(H  14,C   3,C   2,C   1)      0.02 -0.000003    0.01      0.03   
    62. D(C   4,C   3,C   2,C   1)   -179.97 -0.000007    0.03   -179.94   
    63. D(C   4,C   3,C   2,C  12)      0.03  0.000001   -0.02      0.01   
    64. D(H  14,C   3,C   2,C  12)   -179.98  0.000005   -0.03   -180.02   
    65. D(C  10,C   4,C   3,H  14)   -179.96 -0.000000   -0.01   -179.96   
    66. D(C  10,C   4,C   3,C   2)      0.03  0.000004   -0.02      0.01   
    67. D(C   5,C   4,C   3,H  14)      0.04  0.000001   -0.01      0.03   
    68. D(C   5,C   4,C   3,C   2)   -179.97  0.000006   -0.03   -180.00   
    69. D(H  15,C   5,C   4,C  10)   -179.99 -0.000002    0.00   -179.99   
    70. D(H  15,C   5,C   4,C   3)      0.01 -0.000004    0.01      0.02   
    71. D(C   6,C   5,C   4,C   3)   -179.98 -0.000002   -0.00   -179.99   
    72. D(C   6,C   5,C   4,C  10)      0.02 -0.000000   -0.01      0.01   
    73. D(C   7,C   6,C   5,H  15)   -180.00  0.000001   -0.01   -180.00   
    74. D(C   7,C   6,C   5,C   4)     -0.00 -0.000001    0.00     -0.00   
    75. D(H  16,C   6,C   5,C   4)   -180.00 -0.000001    0.00   -180.00   
    76. D(H  16,C   6,C   5,H  15)      0.01  0.000001   -0.01      0.00   
    77. D(C   9,C   7,C   6,H  16)    180.00  0.000004   -0.01    179.99   
    78. D(C   9,C   7,C   6,C   5)      0.00  0.000005   -0.01     -0.01   
    79. D(O   8,C   7,C   6,H  16)     -0.01 -0.000005    0.03      0.01   
    80. D(O   8,C   7,C   6,C   5)    179.99 -0.000005    0.03    180.02   
    81. D(H  17,C   9,C   7,O   8)      0.01  0.000006   -0.03     -0.02   
    82. D(H  17,C   9,C   7,C   6)    180.00 -0.000004    0.01    180.01   
    83. D(C  10,C   9,C   7,O   8)    180.00  0.000002   -0.01    179.98   
    84. D(C  10,C   9,C   7,C   6)     -0.02 -0.000007    0.03      0.01   
    85. D(C   4,C  10,C   9,H  17)   -179.98  0.000003   -0.02   -180.00   
    86. D(C   4,C  10,C   9,C   7)      0.03  0.000007   -0.03     -0.00   
    87. D(O  11,C  10,C   4,C   5)    179.97 -0.000005    0.03    180.00   
    88. D(O  11,C  10,C   4,C   3)     -0.03 -0.000003    0.03     -0.00   
    89. D(C   9,C  10,C   4,C   5)     -0.03 -0.000003    0.02     -0.01   
    90. D(O  11,C  10,C   9,C   7)   -179.97  0.000009   -0.04   -180.01   
    91. D(C   9,C  10,C   4,C   3)    179.97 -0.000001    0.02    179.99   
    92. D(O  11,C  10,C   9,H  17)      0.02  0.000005   -0.02     -0.01   
    93. D(C  12,O  11,C  10,C   9)    179.97 -0.000005    0.02    179.99   
    94. D(C  12,O  11,C  10,C   4)     -0.04 -0.000003    0.01     -0.02   
    95. D(O  13,C  12,O  11,C  10)   -179.91  0.000008   -0.04   -179.95   
    96. D(C   2,C  12,O  11,C  10)      0.09  0.000008   -0.05      0.04   
    97. D(O  13,C  12,C   2,C   3)    179.91 -0.000007    0.05    179.96   
    98. D(O  13,C  12,C   2,C   1)     -0.09  0.000001    0.00     -0.09   
    99. D(O  11,C  12,C   2,C   3)     -0.09 -0.000007    0.05     -0.04   
   100. D(O  11,C  12,C   2,C   1)    179.91  0.000001    0.01    179.92   
   101. D(H  19,H  15,C   5,C   6)    179.92 -0.000004   -0.12    179.80   
   102. D(H  19,H  15,C   5,C   4)     -0.08 -0.000002   -0.13     -0.21   
   103. D(O  18,H  15,C   5,C   6)    179.85 -0.000005   -0.03    179.82   
   104. D(O  18,H  15,C   5,C   4)     -0.14 -0.000003   -0.04     -0.18   
   105. D(H  20,O  18,H  15,H  19)   -179.65  0.000006   -0.31   -179.97   
   106. D(H  20,O  18,H  15,C   5)      0.08  0.000004    0.11      0.18   
   107. D(H  19,O  18,H  15,C   5)    179.73 -0.000002    0.42    180.15   
   108. D(H  15,H  19,O  18,H  20)    179.74 -0.000004    0.23    179.98   
   109. D(O  18,H  19,H  15,C   5)     -0.30 -0.000003    0.46      0.16   
    ----------------------------------------------------------------------------
                 *******************************************************
                 *** FINAL ENERGY EVALUATION AT THE STATIONARY POINT ***
                 ***               (AFTER  116 CYCLES)               ***
                 *******************************************************
---------------------------------
CARTESIAN COORDINATES (ANGSTROEM)
---------------------------------
  N     0.202525   -4.000354   -1.732982
  C     0.119637   -2.978004   -1.218425
  C     0.072397   -1.702452   -0.628586
  C     0.896955   -0.702120   -1.078931
  C     0.842583    0.569479   -0.481276
  C     1.665740    1.650330   -0.896054
  C     1.585983    2.859859   -0.297386
  C     0.652844    3.115100    0.801931
  O     0.577387    4.211641    1.347547
  C    -0.177467    1.991902    1.205977
  C    -0.079752    0.777548    0.586209
  O    -0.884747   -0.226598    1.014273
  C    -0.878485   -1.479925    0.474626
  O    -1.627832   -2.304923    0.918484
  H     1.585883   -0.894990   -1.891255
  H     2.356821    1.469617   -1.706727
  H     2.206469    3.687808   -0.604499
  H    -0.878424    2.139306    2.012686
  O     2.425167   -2.272773   -3.352648
  H     3.036483   -2.445465   -4.071892
  H     1.947043   -3.092058   -3.192013

----------------------------
CARTESIAN COORDINATES (A.U.)
----------------------------
  NO LB    ZA    FRAG    MASS        X           Y           Z
   0 N   7.0000    0    14.007    0.382717   -7.559573   -3.274861
   1 C   6.0000    0    12.011    0.226081   -5.627612   -2.302491
   2 C   6.0000    0    12.011    0.136810   -3.217168   -1.187855
   3 C   6.0000    0    12.011    1.694999   -1.326815   -2.038884
   4 C   6.0000    0    12.011    1.592252    1.076159   -0.909480
   5 C   6.0000    0    12.011    3.147793    3.118671   -1.693296
   6 C   6.0000    0    12.011    2.997074    5.404351   -0.561978
   7 C   6.0000    0    12.011    1.233696    5.886687    1.515430
   8 O   8.0000    0    15.999    1.091103    7.958848    2.546494
   9 C   6.0000    0    12.011   -0.335364    3.764148    2.278966
  10 C   6.0000    0    12.011   -0.150710    1.469353    1.107774
  11 O   8.0000    0    15.999   -1.671929   -0.428208    1.916697
  12 C   6.0000    0    12.011   -1.660096   -2.796653    0.896914
  13 O   8.0000    0    15.999   -3.076157   -4.355673    1.735683
  14 H   1.0000    0     1.008    2.996885   -1.691287   -3.573954
  15 H   1.0000    0     1.008    4.453746    2.777174   -3.225246
  16 H   1.0000    0     1.008    4.169623    6.968947   -1.142337
  17 H   1.0000    0     1.008   -1.659980    4.042702    3.803425
  18 O   8.0000    0    15.999    4.582901   -4.294918   -6.335586
  19 H   1.0000    0     1.008    5.738122   -4.621259   -7.694760
  20 H   1.0000    0     1.008    3.679378   -5.843142   -6.032030

      -----------------------------------------------------------      
     |                   =====================                   |     
     |                           x T B                           |     
     |                   =====================                   |     
     |                         S. Grimme                         |     
     |          Mulliken Center for Theoretical Chemistry        |     
     |                    University of Bonn                     |     
      -----------------------------------------------------------      

   * xtb version 6.6.1 (8d0f1dd) compiled by 'stahn@M-Bot' on 2023-08-01

   xtb is free software: you can redistribute it and/or modify it under
   the terms of the GNU Lesser General Public License as published by
   the Free Software Foundation, either version 3 of the License, or
   (at your option) any later version.
   
   xtb is distributed in the hope that it will be useful,
   but WITHOUT ANY WARRANTY; without even the implied warranty of
   MERCHANTABILITY or FITNESS FOR A PARTICULAR PURPOSE.  See the
   GNU Lesser General Public License for more details.
   
   Cite this work as:
   * C. Bannwarth, E. Caldeweyher, S. Ehlert, A. Hansen, P. Pracht,
     J. Seibert, S. Spicher, S. Grimme, WIREs Comput. Mol. Sci., 2020, 11,
     e01493. DOI: 10.1002/wcms.1493
   
   for GFN2-xTB:
   * C. Bannwarth, S. Ehlert and S. Grimme., J. Chem. Theory Comput., 2019,
     15, 1652-1671. DOI: 10.1021/acs.jctc.8b01176
   for GFN1-xTB:
   * S. Grimme, C. Bannwarth, P. Shushkov, J. Chem. Theory Comput., 2017,
     13, 1989-2009. DOI: 10.1021/acs.jctc.7b00118
   for GFN0-xTB:
   * P. Pracht, E. Caldeweyher, S. Ehlert, S. Grimme, ChemRxiv, 2019, preprint.
     DOI: 10.26434/chemrxiv.8326202.v1
   for GFN-FF:
   * S. Spicher and S. Grimme, Angew. Chem. Int. Ed., 2020, 59, 15665-15673.
     DOI: 10.1002/anie.202004239
   
   for ALPB and GBSA implicit solvation:
   * S. Ehlert, M. Stahn, S. Spicher, S. Grimme, J. Chem. Theory Comput.,
     2021, 17, 4250-4261. DOI: 10.1021/acs.jctc.1c00471
   
   for DFT-D4:
   * E. Caldeweyher, C. Bannwarth and S. Grimme, J. Chem. Phys., 2017,
     147, 034112. DOI: 10.1063/1.4993215
   * E. Caldeweyher, S. Ehlert, A. Hansen, H. Neugebauer, S. Spicher,
     C. Bannwarth and S. Grimme, J. Chem. Phys., 2019, 150, 154122.
     DOI: 10.1063/1.5090222
   * E. Caldeweyher, J.-M. Mewes, S. Ehlert and S. Grimme, Phys. Chem. Chem. Phys.
     2020, 22, 8499-8512. DOI: 10.1039/D0CP00502A
   
   for sTDA-xTB:
   * S. Grimme and C. Bannwarth, J. Chem. Phys., 2016, 145, 054103.
     DOI: 10.1063/1.4959605
   
   in the mass-spec context:
   * V. Asgeirsson, C. Bauer and S. Grimme, Chem. Sci., 2017, 8, 4879.
     DOI: 10.1039/c7sc00601b
   * J. Koopman and S. Grimme, ACS Omega 2019, 4, 12, 15120-15133.
     DOI: 10.1021/acsomega.9b02011
   
   for metadynamics refer to:
   * S. Grimme, J. Chem. Theory Comput., 2019, 155, 2847-2862
     DOI: 10.1021/acs.jctc.9b00143
   
   for SPH calculations refer to:
   * S. Spicher and S. Grimme, J. Chem. Theory Comput., 2021, 17, 1701-1714
     DOI: 10.1021/acs.jctc.0c01306
   
   with help from (in alphabetical order)
   P. Atkinson, C. Bannwarth, F. Bohle, G. Brandenburg, E. Caldeweyher
   M. Checinski, S. Dohm, S. Ehlert, S. Ehrlich, I. Gerasimov, C. Hölzer
   A. Katbashev, J. Koopman, C. Lavigne, S. Lehtola, F. März, M. Müller,
   F. Musil, H. Neugebauer, J. Pisarek, C. Plett, P. Pracht, F. Pultar,
   J. Seibert, P. Shushkov, S. Spicher, M. Stahn, M. Steiner, T. Strunk,
   J. Stückrath, T. Rose, and J. Unsleber
   
 * started run on 2025/01/14 at 21:17:18.368     

           -------------------------------------------------
          |                Calculation Setup                |
           -------------------------------------------------

          program call               : /home/jang/cal_tmp/10_orca/orca_5_0_4_linux_x86-64_shared_openmpi411/otool_xtb /home/jang/cal_tmp/10_orca/Gen_chromophore/Gen_molecular_pairs_cal/mol_2_2.xyz/input_XTB.xyz --grad -c 0 -u 0 -P 4 --namespace /home/jang/cal_tmp/10_orca/Gen_chromophore/Gen_molecular_pairs_cal/mol_2_2.xyz/input --input /home/jang/cal_tmp/10_orca/Gen_chromophore/Gen_molecular_pairs_cal/mol_2_2.xyz/input_XTB.input.tmp --acc 1.000000
          hostname                   : node02
          calculation namespace      : /home/jang/cal_tmp/10_orca/Gen_chromophore/Gen_molecular_pairs_cal/mol_2_2.xyz/input
          coordinate file            : /home/jang/cal_tmp/10_orca/Gen_chromophore/Gen_molecular_pairs_cal/mol_2_2.xyz/input_XTB.xyz
          omp threads                :                     4

   ID    Z sym.   atoms
    1    7 N      1
    2    6 C      2-8, 10, 11, 13
    3    8 O      9, 12, 14, 19
    4    1 H      15-18, 20, 21

molecular fragmentation (1/2 indicates fragments):
111111111111111111222
# atoms in fragment 1/2:    18     3
 fragment masses (1/2) :      186.14       18.02
CMA distance (Bohr)    :   9.044
constraining FC (au)   :  0.0500

           -------------------------------------------------
          |                 G F N 2 - x T B                 |
           -------------------------------------------------

        Reference                      10.1021/acs.jctc.8b01176
      * Hamiltonian:
        H0-scaling (s, p, d)           1.850000    2.230000    2.230000
        zeta-weighting                 0.500000
      * Dispersion:
        s8                             2.700000
        a1                             0.520000
        a2                             5.000000
        s9                             5.000000
      * Repulsion:
        kExp                           1.500000    1.000000
        rExp                           1.000000
      * Coulomb:
        alpha                          2.000000
        third order                    shell-resolved
        anisotropic                    true
        a3                             3.000000
        a5                             4.000000
        cn-shift                       1.200000
        cn-exp                         4.000000
        max-rad                        5.000000

q/qsh data taken from xtbrestart
CAMM data taken from xtbrestart

          ...................................................
          :                      SETUP                      :
          :.................................................:
          :  # basis functions                  66          :
          :  # atomic orbitals                  66          :
          :  # shells                           36          :
          :  # electrons                        75          :
          :  max. iterations                   250          :
          :  Hamiltonian                  GFN2-xTB          :
          :  restarted?                       true          :
          :  GBSA solvation                  false          :
          :  PC potential                    false          :
          :  electronic temp.          300.0000000     K    :
          :  accuracy                    1.0000000          :
          :  -> integral cutoff          0.2500000E+02      :
          :  -> integral neglect         0.1000000E-07      :
          :  -> SCF convergence          0.1000000E-05 Eh   :
          :  -> wf. convergence          0.1000000E-03 e    :
          :  Broyden damping             0.4000000          :
          ...................................................

 iter      E             dE          RMSdq      gap      omega  full diag
   1    -44.1499778 -0.441500E+02  0.734E-03    2.25       0.0  T
   2    -44.1499778 -0.378913E-08  0.441E-03    2.25       5.0  T
   3    -44.1499777  0.634609E-07  0.153E-03    2.25      14.3  T
   4    -44.1499778 -0.690854E-07  0.244E-04    2.25      89.6  T
   5    -44.1499778 -0.246040E-09  0.156E-04    2.25     139.9  T

   *** convergence criteria satisfied after 5 iterations ***

         #    Occupation            Energy/Eh            Energy/eV
      -------------------------------------------------------------
         1        2.0000           -0.7878281             -21.4379
       ...           ...                  ...                  ...
        32        2.0000           -0.4698091             -12.7842
        33        2.0000           -0.4663712             -12.6906
        34        2.0000           -0.4612677             -12.5517
        35        2.0000           -0.4511999             -12.2778
        36        2.0000           -0.4435111             -12.0686
        37        1.9986           -0.4232415             -11.5170
        38        1.0014           -0.4107186             -11.1762 (HOMO)
        39                         -0.3279874              -8.9250 (LUMO)
        40                         -0.2809643              -7.6454
        41                         -0.2553383              -6.9481
        42                         -0.2415071              -6.5717
        43                         -0.2355798              -6.4105
       ...                                ...                  ...
        66                          1.1386756              30.9849
      -------------------------------------------------------------
                  HL-Gap            0.0827313 Eh            2.2512 eV
             Fermi-level           -0.3931665 Eh          -10.6986 eV

 SCC (total)                   0 d,  0 h,  0 min,  0.039 sec
 SCC setup                      ...        0 min,  0.000 sec (  0.716%)
 Dispersion                     ...        0 min,  0.000 sec (  0.742%)
 classical contributions        ...        0 min,  0.000 sec (  0.127%)
 integral evaluation            ...        0 min,  0.002 sec (  6.044%)
 iterations                     ...        0 min,  0.029 sec ( 75.565%)
 molecular gradient             ...        0 min,  0.006 sec ( 15.024%)
 printout                       ...        0 min,  0.001 sec (  1.505%)

         :::::::::::::::::::::::::::::::::::::::::::::::::::::
         ::                     SUMMARY                     ::
         :::::::::::::::::::::::::::::::::::::::::::::::::::::
         :: total energy             -43.553877282687 Eh    ::
         :: gradient norm              0.000292964926 Eh/a0 ::
         :: HOMO-LUMO gap              2.251232771776 eV    ::
         ::.................................................::
         :: SCC energy               -44.149977817244 Eh    ::
         :: -> isotropic ES            0.102482620217 Eh    ::
         :: -> anisotropic ES         -0.002058508717 Eh    ::
         :: -> anisotropic XC          0.021221852497 Eh    ::
         :: -> dispersion             -0.020399227976 Eh    ::
         :: repulsion energy           0.596122631768 Eh    ::
         :: add. restraining           0.000000000000 Eh    ::
         :: total charge               0.000000000001 e     ::
         :::::::::::::::::::::::::::::::::::::::::::::::::::::


Property printout bound to 'properties.out'

           -------------------------------------------------
          | TOTAL ENERGY              -43.553877282687 Eh   |
          | GRADIENT NORM               0.000292964926 Eh/α |
          | HOMO-LUMO GAP               2.251232771776 eV   |
           -------------------------------------------------

------------------------------------------------------------------------
 * finished run on 2025/01/14 at 21:17:18.794     
------------------------------------------------------------------------
 total:
 * wall-time:     0 d,  0 h,  0 min,  0.424 sec
 *  cpu-time:     0 d,  0 h,  0 min,  0.663 sec
 * ratio c/w:     1.564 speedup
 SCF:
 * wall-time:     0 d,  0 h,  0 min,  0.039 sec
 *  cpu-time:     0 d,  0 h,  0 min,  0.145 sec
 * ratio c/w:     3.696 speedup


-------------------------   --------------------
FINAL SINGLE POINT ENERGY       -43.553877282690
-------------------------   --------------------

                                *** OPTIMIZATION RUN DONE ***

Timings for individual modules:

Sum of individual times         ...      284.036 sec (=   4.734 min)
Geometry relaxation             ...       84.849 sec (=   1.414 min)  29.9 %
XTB module                      ...      199.187 sec (=   3.320 min)  70.1 %
                             ****ORCA TERMINATED NORMALLY****
TOTAL RUN TIME: 0 days 0 hours 17 minutes 58 seconds 679 msec
