
                                 *****************
                                 * O   R   C   A *
                                 *****************

                                            #,                                       
                                            ###                                      
                                            ####                                     
                                            #####                                    
                                            ######                                   
                                           ########,                                 
                                     ,,################,,,,,                         
                               ,,#################################,,                 
                          ,,##########################################,,             
                       ,#########################################, ''#####,          
                    ,#############################################,,   '####,        
                  ,##################################################,,,,####,       
                ,###########''''           ''''###############################       
              ,#####''   ,,,,##########,,,,          '''####'''          '####       
            ,##' ,,,,###########################,,,                        '##       
           ' ,,###''''                  '''############,,,                           
         ,,##''                                '''############,,,,        ,,,,,,###''
      ,#''                                            '''#######################'''  
     '                                                          ''''####''''         
             ,#######,   #######,   ,#######,      ##                                
            ,#'     '#,  ##    ##  ,#'     '#,    #''#        ######   ,####,        
            ##       ##  ##   ,#'  ##            #'  '#       #        #'  '#        
            ##       ##  #######   ##           ,######,      #####,   #    #        
            '#,     ,#'  ##    ##  '#,     ,#' ,#      #,         ##   #,  ,#        
             '#######'   ##     ##  '#######'  #'      '#     #####' # '####'        



                  #######################################################
                  #                        -***-                        #
                  #          Department of theory and spectroscopy      #
                  #    Directorship and core code : Frank Neese         #
                  #        Max Planck Institute fuer Kohlenforschung    #
                  #                Kaiser Wilhelm Platz 1               #
                  #                 D-45470 Muelheim/Ruhr               #
                  #                      Germany                        #
                  #                                                     #
                  #                  All rights reserved                #
                  #                        -***-                        #
                  #######################################################


                         Program Version 5.0.4 -  RELEASE  -


 With contributions from (in alphabetic order):
   Daniel Aravena         : Magnetic Suceptibility
   Michael Atanasov       : Ab Initio Ligand Field Theory (pilot matlab implementation)
   Alexander A. Auer      : GIAO ZORA, VPT2 properties, NMR spectrum
   Ute Becker             : Parallelization
   Giovanni Bistoni       : ED, misc. LED, open-shell LED, HFLD
   Martin Brehm           : Molecular dynamics
   Dmytro Bykov           : SCF Hessian
   Vijay G. Chilkuri      : MRCI spin determinant printing, contributions to CSF-ICE
   Dipayan Datta          : RHF DLPNO-CCSD density
   Achintya Kumar Dutta   : EOM-CC, STEOM-CC
   Dmitry Ganyushin       : Spin-Orbit,Spin-Spin,Magnetic field MRCI
   Miquel Garcia          : C-PCM and meta-GGA Hessian, CC/C-PCM, Gaussian charge scheme
   Yang Guo               : DLPNO-NEVPT2, F12-NEVPT2, CIM, IAO-localization
   Andreas Hansen         : Spin unrestricted coupled pair/coupled cluster methods
   Benjamin Helmich-Paris : MC-RPA, TRAH-SCF, COSX integrals
   Lee Huntington         : MR-EOM, pCC
   Robert Izsak           : Overlap fitted RIJCOSX, COSX-SCS-MP3, EOM
   Marcus Kettner         : VPT2
   Christian Kollmar      : KDIIS, OOCD, Brueckner-CCSD(T), CCSD density, CASPT2, CASPT2-K
   Simone Kossmann        : Meta GGA functionals, TD-DFT gradient, OOMP2, MP2 Hessian
   Martin Krupicka        : Initial AUTO-CI
   Lucas Lang             : DCDCAS
   Marvin Lechner         : AUTO-CI (C++ implementation), FIC-MRCC
   Dagmar Lenk            : GEPOL surface, SMD
   Dimitrios Liakos       : Extrapolation schemes; Compound Job, initial MDCI parallelization
   Dimitrios Manganas     : Further ROCIS development; embedding schemes
   Dimitrios Pantazis     : SARC Basis sets
   Anastasios Papadopoulos: AUTO-CI, single reference methods and gradients
   Taras Petrenko         : DFT Hessian,TD-DFT gradient, ASA, ECA, R-Raman, ABS, FL, XAS/XES, NRVS
   Peter Pinski           : DLPNO-MP2, DLPNO-MP2 Gradient
   Christoph Reimann      : Effective Core Potentials
   Marius Retegan         : Local ZFS, SOC
   Christoph Riplinger    : Optimizer, TS searches, QM/MM, DLPNO-CCSD(T), (RO)-DLPNO pert. Triples
   Tobias Risthaus        : Range-separated hybrids, TD-DFT gradient, RPA, STAB
   Michael Roemelt        : Original ROCIS implementation
   Masaaki Saitow         : Open-shell DLPNO-CCSD energy and density
   Barbara Sandhoefer     : DKH picture change effects
   Avijit Sen             : IP-ROCIS
   Kantharuban Sivalingam : CASSCF convergence, NEVPT2, FIC-MRCI
   Bernardo de Souza      : ESD, SOC TD-DFT
   Georgi Stoychev        : AutoAux, RI-MP2 NMR, DLPNO-MP2 response
   Willem Van den Heuvel  : Paramagnetic NMR
   Boris Wezisla          : Elementary symmetry handling
   Frank Wennmohs         : Technical directorship


 We gratefully acknowledge several colleagues who have allowed us to
 interface, adapt or use parts of their codes:
   Stefan Grimme, W. Hujo, H. Kruse, P. Pracht,  : VdW corrections, initial TS optimization,
                  C. Bannwarth, S. Ehlert          DFT functionals, gCP, sTDA/sTD-DF
   Ed Valeev, F. Pavosevic, A. Kumar             : LibInt (2-el integral package), F12 methods
   Garnet Chan, S. Sharma, J. Yang, R. Olivares  : DMRG
   Ulf Ekstrom                                   : XCFun DFT Library
   Mihaly Kallay                                 : mrcc  (arbitrary order and MRCC methods)
   Jiri Pittner, Ondrej Demel                    : Mk-CCSD
   Frank Weinhold                                : gennbo (NPA and NBO analysis)
   Christopher J. Cramer and Donald G. Truhlar   : smd solvation model
   Lars Goerigk                                  : TD-DFT with DH, B97 family of functionals
   V. Asgeirsson, H. Jonsson                     : NEB implementation
   FAccTs GmbH                                   : IRC, NEB, NEB-TS, DLPNO-Multilevel, CI-OPT
                                                   MM, QMMM, 2- and 3-layer-ONIOM, Crystal-QMMM,
                                                   LR-CPCM, SF, NACMEs, symmetry and pop. for TD-DFT,
                                                   nearIR, NL-DFT gradient (VV10), updates on ESD,
                                                   ML-optimized integration grids
   S Lehtola, MJT Oliveira, MAL Marques          : LibXC Library
   Liviu Ungur et al                             : ANISO software


 Your calculation uses the libint2 library for the computation of 2-el integrals
 For citations please refer to: http://libint.valeyev.net

 Your ORCA version has been built with support for libXC version: 5.1.0
 For citations please refer to: https://tddft.org/programs/libxc/

 This ORCA versions uses:
   CBLAS   interface :  Fast vector & matrix operations
   LAPACKE interface :  Fast linear algebra routines
   SCALAPACK package :  Parallel linear algebra routines
   Shared memory     :  Shared parallel matrices
   BLAS/LAPACK       :  OpenBLAS 0.3.15  USE64BITINT DYNAMIC_ARCH NO_AFFINITY SkylakeX SINGLE_THREADED
        Core in use  :  SkylakeX
   Copyright (c) 2011-2014, The OpenBLAS Project




***************************************
The coordinates will be read from file: mol.xyz
***************************************


Your calculation utilizes the atom-pairwise dispersion correction
with the Becke-Johnson damping scheme (D3BJ)
Cite in your paper:
S.Grimme, S.Ehrlich, L.Goerigk, J Comput Chem, (2011), 32, 1456–1465 
S.Grimme, J.Antony, S.Ehrlich and H.Krieg, J.Chem.Phys., 132, (2010), 154104 
   

Your calculation utilizes the semiempirical GFN2-xTB method
Please cite in your paper:
C. Bannwarth, Ehlert S., S. Grimme,  J. Chem. Theory Comput., 15, (2019), 1652.
   

================================================================================

----- Orbital basis set information -----
Your calculation utilizes the basis: def2-SVP
   F. Weigend and R. Ahlrichs, Phys. Chem. Chem. Phys. 7, 3297 (2005).

----- AuxJ basis set information -----
Your calculation utilizes the auxiliary basis: def2/J
   F. Weigend, Phys. Chem. Chem. Phys. 8, 1057 (2006).

================================================================================
                                        WARNINGS
                       Please study these warnings very carefully!
================================================================================


WARNING: Geometry Optimization
  ===> : Switching off AutoStart
         For restart on a previous wavefunction, please use MOREAD

WARNING: Found dipole moment calculation with XTB calculation
  ===> : Switching off dipole moment calculation


WARNING: TRAH-SCF for XTB is not implemented!
  ===> : Turning TRAH off!

================================================================================
                                       INPUT FILE
================================================================================
NAME = /home/jang/cal_tmp/10_orca/Gen_chromophore/Gen_molecular_pairs_cal/mol_2_5.xyz/input.inp
|  1> ! B3LYP D3BJ def2-SVP TightSCF XTB Opt PAL8
|  2> 
|  3> %geom
|  4>   MaxIter 3000
|  5> end
|  6> 
|  7> * xyzfile 0 1 mol.xyz
|  8> 
|  9> %pal nprocs 4 # any number (positive integer)
| 10> end
| 11> 
| 12>                          ****END OF INPUT****
================================================================================

                       *****************************
                       * Geometry Optimization Run *
                       *****************************

Geometry optimization settings:
Update method            Update   .... BFGS
Choice of coordinates    CoordSys .... Z-matrix Internals
Initial Hessian          InHess   .... Almoef's Model

Convergence Tolerances:
Energy Change            TolE     ....  5.0000e-06 Eh
Max. Gradient            TolMAXG  ....  3.0000e-04 Eh/bohr
RMS Gradient             TolRMSG  ....  1.0000e-04 Eh/bohr
Max. Displacement        TolMAXD  ....  4.0000e-03 bohr
RMS Displacement         TolRMSD  ....  2.0000e-03 bohr
Strict Convergence                ....  False
------------------------------------------------------------------------------
                        ORCA OPTIMIZATION COORDINATE SETUP
------------------------------------------------------------------------------

The optimization will be done in new redundant internal coordinates
Making redundant internal coordinates   ...  (new redundants) done
Evaluating the initial hessian          ...  (Almloef) done
Evaluating the coordinates              ...  done
Calculating the B-matrix                .... done
Calculating the G-matrix                .... done
Diagonalizing the G-matrix              .... done
The first mode is                       ....   86
The number of degrees of freedom        ....   57

    -----------------------------------------------------------------
                    Redundant Internal Coordinates


    -----------------------------------------------------------------
         Definition                    Initial Value    Approx d2E/dq
    -----------------------------------------------------------------
      1. B(C   1,N   0)                  1.1617         1.294464   
      2. B(C   2,C   1)                  1.4203         0.558906   
      3. B(C   3,C   2)                  1.3407         0.748977   
      4. B(C   4,C   3)                  1.4517         0.498162   
      5. B(C   5,C   4)                  1.3886         0.628017   
      6. B(C   6,C   5)                  1.4030         0.595707   
      7. B(C   7,C   6)                  1.4095         0.581595   
      8. B(O   8,C   7)                  1.2731         0.859781   
      9. B(C   9,C   7)                  1.4064         0.588194   
     10. B(C  10,C   9)                  1.3965         0.610165   
     11. B(C  10,C   4)                  1.3862         0.633503   
     12. B(O  11,C  10)                  1.4084         0.522996   
     13. B(C  12,C   2)                  1.4794         0.449829   
     14. B(C  12,O  11)                  1.3886         0.562544   
     15. B(O  13,C  12)                  1.2282         1.014053   
     16. B(H  14,C   3)                  1.0854         0.366227   
     17. B(H  15,C   5)                  1.0846         0.367344   
     18. B(H  16,C   6)                  1.0904         0.359540   
     19. B(H  17,C   9)                  1.0885         0.362113   
     20. B(O  18,O  13)                  4.9994         0.000001   
     21. B(O  18,C  12)                  5.0785         0.000001   
     22. B(O  18,O  11)                  5.0455         0.000001   
     23. B(H  19,O  18)                  0.9690         0.503047   
     24. B(H  20,O  13)                  4.3537         0.000002   
     25. B(H  20,C  12)                  4.6268         0.000001   
     26. B(H  20,O  11)                  4.7984         0.000000   
     27. B(H  20,C   2)                  5.3749         0.000000   
     28. B(H  20,O  18)                  0.9690         0.503047   
     29. L(N   0,C   1,C   2,C   3, 1) 176.9664         0.483890   
     30. L(N   0,C   1,C   2,C   3, 2) 180.0001         0.483890   
     31. A(C   1,C   2,C   3)          120.2626         0.440789   
     32. A(C   3,C   2,C  12)          121.5410         0.423919   
     33. A(C   1,C   2,C  12)          118.1964         0.402448   
     34. A(C   2,C   3,C   4)          119.9811         0.431746   
     35. A(C   2,C   3,H  14)          122.0778         0.365496   
     36. A(C   4,C   3,H  14)          117.9411         0.341119   
     37. A(C   5,C   4,C  10)          118.4668         0.436763   
     38. A(C   3,C   4,C  10)          119.2042         0.418999   
     39. A(C   3,C   4,C   5)          122.3290         0.418350   
     40. A(C   6,C   5,H  15)          118.6348         0.351714   
     41. A(C   4,C   5,H  15)          121.7345         0.354873   
     42. A(C   4,C   5,C   6)          119.6307         0.431954   
     43. A(C   5,C   6,H  16)          118.6857         0.350440   
     44. A(C   7,C   6,H  16)          117.8867         0.349025   
     45. A(C   5,C   6,C   7)          123.4275         0.426045   
     46. A(O   8,C   7,C   9)          122.6345         0.453147   
     47. A(C   6,C   7,O   8)          122.3942         0.452218   
     48. A(C   6,C   7,C   9)          114.9713         0.425078   
     49. A(C  10,C   9,H  17)          119.4361         0.352287   
     50. A(C   7,C   9,H  17)          118.5678         0.350111   
     51. A(C   7,C   9,C  10)          121.9961         0.428746   
     52. A(C   4,C  10,O  11)          120.7891         0.419908   
     53. A(C   4,C  10,C   9)          121.5076         0.434500   
     54. A(C   9,C  10,O  11)          117.7033         0.417108   
     55. A(C  10,O  11,C  12)          121.3283         0.408478   
     56. A(C  12,O  11,O  18)           83.4651         0.104016   
     57. A(C  10,O  11,O  18)          109.1834         0.103771   
     58. A(C   2,C  12,O  13)          121.6144         0.444743   
     59. A(O  11,C  12,O  13)          121.2293         0.460131   
     60. A(C   2,C  12,O  11)          117.1563         0.400326   
     61. A(O  13,C  12,O  18)           79.3497         0.106262   
     62. A(O  11,C  12,O  18)           80.7726         0.104106   
     63. A(C   2,C  12,O  18)          110.6099         0.103480   
     64. A(C  12,O  13,O  18)           86.6791         0.106830   
     65. A(H  19,O  18,H  20)          103.9780         0.318375   
     66. A(C  12,O  18,O  13)           13.9712         0.089726   
     67. A(O  11,O  18,O  13)           26.2503         0.089721   
     68. A(O  13,O  18,H  20)           43.9294         0.102113   
     69. A(O  13,O  18,H  19)          128.6379         0.102113   
     70. A(O  11,O  18,C  12)           15.7623         0.089698   
     71. A(C  12,O  18,H  20)           57.2604         0.101695   
     72. A(C  12,O  18,H  19)          128.0740         0.101695   
     73. A(O  11,O  18,H  20)           69.8279         0.101619   
     74. A(O  11,O  18,H  19)          138.7440         0.101619   
     75. D(H  14,C   3,C   2,C  12)   -180.0000         0.043531   
     76. D(C   4,C   3,C   2,C   1)   -180.0000         0.043531   
     77. D(H  14,C   3,C   2,C   1)      0.0000         0.043531   
     78. D(C   4,C   3,C   2,C  12)     -0.0000         0.043531   
     79. D(C   5,C   4,C   3,C   2)   -180.0000         0.016902   
     80. D(C  10,C   4,C   3,C   2)      0.0000         0.016902   
     81. D(C  10,C   4,C   3,H  14)   -180.0000         0.016902   
     82. D(C   5,C   4,C   3,H  14)     -0.0000         0.016902   
     83. D(H  15,C   5,C   4,C  10)   -180.0000         0.027335   
     84. D(H  15,C   5,C   4,C   3)      0.0000         0.027335   
     85. D(C   6,C   5,C   4,C  10)      0.0000         0.027335   
     86. D(C   6,C   5,C   4,C   3)   -180.0000         0.027335   
     87. D(C   7,C   6,C   5,H  15)    180.0000         0.024445   
     88. D(H  16,C   6,C   5,C   4)    179.9999         0.024445   
     89. D(C   7,C   6,C   5,C   4)     -0.0000         0.024445   
     90. D(H  16,C   6,C   5,H  15)     -0.0001         0.024445   
     91. D(C   9,C   7,C   6,H  16)   -179.9999         0.023245   
     92. D(C   9,C   7,C   6,C   5)      0.0000         0.023245   
     93. D(O   8,C   7,C   6,H  16)      0.0000         0.023245   
     94. D(O   8,C   7,C   6,C   5)   -180.0000         0.023245   
     95. D(H  17,C   9,C   7,O   8)      0.0000         0.023802   
     96. D(C  10,C   9,C   7,C   6)     -0.0000         0.023802   
     97. D(C  10,C   9,C   7,O   8)   -180.0000         0.023802   
     98. D(H  17,C   9,C   7,C   6)    180.0000         0.023802   
     99. D(O  11,C  10,C   9,C   7)    180.0000         0.025714   
    100. D(O  11,C  10,C   4,C   5)   -180.0000         0.027846   
    101. D(O  11,C  10,C   4,C   3)     -0.0000         0.027846   
    102. D(C   9,C  10,C   4,C   5)      0.0000         0.027846   
    103. D(C   4,C  10,C   9,H  17)    180.0000         0.025714   
    104. D(C   9,C  10,C   4,C   3)    180.0000         0.027846   
    105. D(C   4,C  10,C   9,C   7)     -0.0000         0.025714   
    106. D(O  11,C  10,C   9,H  17)     -0.0000         0.025714   
    107. D(O  18,O  11,C  10,C   9)    -85.9457         0.023551   
    108. D(O  18,O  11,C  10,C   4)     94.0543         0.023551   
    109. D(C  12,O  11,C  10,C   9)    179.9999         0.023551   
    110. D(C  12,O  11,C  10,C   4)     -0.0001         0.023551   
    111. D(O  13,C  12,O  11,O  18)     71.4903         0.031471   
    112. D(O  13,C  12,O  11,C  10)   -179.9999         0.031471   
    113. D(C   2,C  12,O  11,O  18)   -108.5098         0.031471   
    114. D(C   2,C  12,O  11,C  10)      0.0001         0.031471   
    115. D(O  18,C  12,C   2,C   3)    -90.0212         0.016990   
    116. D(O  18,C  12,C   2,C   1)     89.9787         0.016990   
    117. D(O  13,C  12,C   2,C   3)    179.9999         0.016990   
    118. D(O  13,C  12,C   2,C   1)     -0.0001         0.016990   
    119. D(O  11,C  12,C   2,C   3)     -0.0001         0.016990   
    120. D(O  18,C  12,O  11,C  10)    108.5099         0.031471   
    121. D(O  11,C  12,C   2,C   1)    179.9999         0.016990   
    122. D(O  18,O  13,C  12,O  11)    -72.2518         0.110128   
    123. D(O  18,O  13,C  12,C   2)    107.7482         0.110128   
    124. D(H  20,O  18,C  12,O  13)     15.8341         0.001500   
    125. D(H  20,O  18,C  12,O  11)    140.2377         0.001500   
    126. D(H  20,O  18,C  12,C   2)   -104.1089         0.001500   
    127. D(H  19,O  18,C  12,O  11)   -137.7458         0.001500   
    128. D(H  19,O  18,C  12,C   2)    -22.0924         0.001500   
    129. D(O  13,O  18,O  11,C  12)    -26.7682         0.001500   
    130. D(O  13,O  18,O  11,C  10)   -147.7159         0.001500   
    131. D(C  12,O  18,O  11,C  10)   -120.9477         0.001500   
    132. D(H  19,O  18,C  12,O  13)     97.8506         0.001500   
    133. D(H  20,O  18,O  11,C  12)    -34.9703         0.001500   
    134. D(H  20,O  18,O  11,C  10)   -155.9180         0.001500   
    135. D(H  19,O  18,O  11,C  12)     53.3917         0.001500   
    136. D(O  11,O  18,C  12,C   2)    115.6534         0.001500   
    137. D(H  19,O  18,O  11,C  10)    -67.5561         0.001500   
    138. D(O  11,O  18,O  13,C  12)     30.4472         0.001500   
    139. D(H  20,O  18,O  13,C  12)   -160.6821         0.001500   
    140. D(H  19,O  18,O  13,C  12)    -93.2690         0.001500   
    141. D(O  13,O  18,C  12,O  11)    124.4036         0.001500   
    142. D(O  13,O  18,C  12,C   2)   -119.9430         0.001500   
    143. D(O  11,O  18,C  12,O  13)   -124.4036         0.001500   
    -----------------------------------------------------------------

Number of atoms                         .... 21
Number of degrees of freedom            .... 143

         *************************************************************
         *                GEOMETRY OPTIMIZATION CYCLE   1            *
         *************************************************************
---------------------------------
CARTESIAN COORDINATES (ANGSTROEM)
---------------------------------
  N    -0.934059   -4.689148   -0.300813
  C    -0.789539   -3.564798   -0.046780
  C    -0.581237   -2.180989    0.196196
  C     0.000284   -1.411545   -0.735008
  C     0.210207    0.002077   -0.480230
  C     0.807281    0.843489   -1.409606
  C     0.982376    2.201535   -1.103995
  C     0.580879    2.780768    0.116658
  O     0.749466    4.016257    0.373410
  C    -0.018621    1.891869    1.026883
  C    -0.196975    0.538762    0.731304
  O    -0.807834   -0.270072    1.709193
  C    -1.021947   -1.625128    1.494475
  O    -1.554810   -2.328768    2.348498
  H     0.326918   -1.810149   -1.690275
  H     1.145731    0.479864   -2.373731
  H     1.452993    2.848351   -1.845057
  H    -0.351113    2.277625    1.988879
  O     2.709597   -1.924047    4.926232
  H     3.475277   -2.517927    4.926232
  H     1.948353   -2.523604    4.926232

----------------------------
CARTESIAN COORDINATES (A.U.)
----------------------------
  NO LB    ZA    FRAG    MASS        X           Y           Z
   0 N   7.0000    0    14.007   -1.765116   -8.861205   -0.568454
   1 C   6.0000    0    12.011   -1.492013   -6.736492   -0.088402
   2 C   6.0000    0    12.011   -1.098378   -4.121471    0.370756
   3 C   6.0000    0    12.011    0.000537   -2.667433   -1.388963
   4 C   6.0000    0    12.011    0.397233    0.003924   -0.907503
   5 C   6.0000    0    12.011    1.525540    1.593963   -2.663769
   6 C   6.0000    0    12.011    1.856422    4.160299   -2.086247
   7 C   6.0000    0    12.011    1.097703    5.254891    0.220451
   8 O   8.0000    0    15.999    1.416285    7.589625    0.705642
   9 C   6.0000    0    12.011   -0.035189    3.575114    1.940528
  10 C   6.0000    0    12.011   -0.372228    1.018113    1.381964
  11 O   8.0000    0    15.999   -1.526585   -0.510361    3.229906
  12 C   6.0000    0    12.011   -1.931200   -3.071047    2.824148
  13 O   8.0000    0    15.999   -2.938165   -4.400735    4.438018
  14 H   1.0000    0     1.008    0.617786   -3.420685   -3.194156
  15 H   1.0000    0     1.008    2.165118    0.906811   -4.485702
  16 H   1.0000    0     1.008    2.745758    5.382603   -3.486651
  17 H   1.0000    0     1.008   -0.663507    4.304088    3.758436
  18 O   8.0000    0    15.999    5.120396   -3.635922    9.309230
  19 H   1.0000    0     1.008    6.567322   -4.758192    9.309230
  20 H   1.0000    0     1.008    3.681854   -4.768921    9.309230

      -----------------------------------------------------------      
     |                   =====================                   |     
     |                           x T B                           |     
     |                   =====================                   |     
     |                         S. Grimme                         |     
     |          Mulliken Center for Theoretical Chemistry        |     
     |                    University of Bonn                     |     
      -----------------------------------------------------------      

   * xtb version 6.6.1 (8d0f1dd) compiled by 'stahn@M-Bot' on 2023-08-01

   xtb is free software: you can redistribute it and/or modify it under
   the terms of the GNU Lesser General Public License as published by
   the Free Software Foundation, either version 3 of the License, or
   (at your option) any later version.
   
   xtb is distributed in the hope that it will be useful,
   but WITHOUT ANY WARRANTY; without even the implied warranty of
   MERCHANTABILITY or FITNESS FOR A PARTICULAR PURPOSE.  See the
   GNU Lesser General Public License for more details.
   
   Cite this work as:
   * C. Bannwarth, E. Caldeweyher, S. Ehlert, A. Hansen, P. Pracht,
     J. Seibert, S. Spicher, S. Grimme, WIREs Comput. Mol. Sci., 2020, 11,
     e01493. DOI: 10.1002/wcms.1493
   
   for GFN2-xTB:
   * C. Bannwarth, S. Ehlert and S. Grimme., J. Chem. Theory Comput., 2019,
     15, 1652-1671. DOI: 10.1021/acs.jctc.8b01176
   for GFN1-xTB:
   * S. Grimme, C. Bannwarth, P. Shushkov, J. Chem. Theory Comput., 2017,
     13, 1989-2009. DOI: 10.1021/acs.jctc.7b00118
   for GFN0-xTB:
   * P. Pracht, E. Caldeweyher, S. Ehlert, S. Grimme, ChemRxiv, 2019, preprint.
     DOI: 10.26434/chemrxiv.8326202.v1
   for GFN-FF:
   * S. Spicher and S. Grimme, Angew. Chem. Int. Ed., 2020, 59, 15665-15673.
     DOI: 10.1002/anie.202004239
   
   for ALPB and GBSA implicit solvation:
   * S. Ehlert, M. Stahn, S. Spicher, S. Grimme, J. Chem. Theory Comput.,
     2021, 17, 4250-4261. DOI: 10.1021/acs.jctc.1c00471
   
   for DFT-D4:
   * E. Caldeweyher, C. Bannwarth and S. Grimme, J. Chem. Phys., 2017,
     147, 034112. DOI: 10.1063/1.4993215
   * E. Caldeweyher, S. Ehlert, A. Hansen, H. Neugebauer, S. Spicher,
     C. Bannwarth and S. Grimme, J. Chem. Phys., 2019, 150, 154122.
     DOI: 10.1063/1.5090222
   * E. Caldeweyher, J.-M. Mewes, S. Ehlert and S. Grimme, Phys. Chem. Chem. Phys.
     2020, 22, 8499-8512. DOI: 10.1039/D0CP00502A
   
   for sTDA-xTB:
   * S. Grimme and C. Bannwarth, J. Chem. Phys., 2016, 145, 054103.
     DOI: 10.1063/1.4959605
   
   in the mass-spec context:
   * V. Asgeirsson, C. Bauer and S. Grimme, Chem. Sci., 2017, 8, 4879.
     DOI: 10.1039/c7sc00601b
   * J. Koopman and S. Grimme, ACS Omega 2019, 4, 12, 15120-15133.
     DOI: 10.1021/acsomega.9b02011
   
   for metadynamics refer to:
   * S. Grimme, J. Chem. Theory Comput., 2019, 155, 2847-2862
     DOI: 10.1021/acs.jctc.9b00143
   
   for SPH calculations refer to:
   * S. Spicher and S. Grimme, J. Chem. Theory Comput., 2021, 17, 1701-1714
     DOI: 10.1021/acs.jctc.0c01306
   
   with help from (in alphabetical order)
   P. Atkinson, C. Bannwarth, F. Bohle, G. Brandenburg, E. Caldeweyher
   M. Checinski, S. Dohm, S. Ehlert, S. Ehrlich, I. Gerasimov, C. Hölzer
   A. Katbashev, J. Koopman, C. Lavigne, S. Lehtola, F. März, M. Müller,
   F. Musil, H. Neugebauer, J. Pisarek, C. Plett, P. Pracht, F. Pultar,
   J. Seibert, P. Shushkov, S. Spicher, M. Stahn, M. Steiner, T. Strunk,
   J. Stückrath, T. Rose, and J. Unsleber
   
 * started run on 2025/01/14 at 21:03:40.592     

           -------------------------------------------------
          |                Calculation Setup                |
           -------------------------------------------------

          program call               : /home/jang/cal_tmp/10_orca/orca_5_0_4_linux_x86-64_shared_openmpi411/otool_xtb /home/jang/cal_tmp/10_orca/Gen_chromophore/Gen_molecular_pairs_cal/mol_2_5.xyz/input_XTB.xyz --grad -c 0 -u 0 -P 4 --namespace /home/jang/cal_tmp/10_orca/Gen_chromophore/Gen_molecular_pairs_cal/mol_2_5.xyz/input --input /home/jang/cal_tmp/10_orca/Gen_chromophore/Gen_molecular_pairs_cal/mol_2_5.xyz/input_XTB.input.tmp --acc 1.000000
          hostname                   : node02
          calculation namespace      : /home/jang/cal_tmp/10_orca/Gen_chromophore/Gen_molecular_pairs_cal/mol_2_5.xyz/input
          coordinate file            : /home/jang/cal_tmp/10_orca/Gen_chromophore/Gen_molecular_pairs_cal/mol_2_5.xyz/input_XTB.xyz
          omp threads                :                     4

   ID    Z sym.   atoms
    1    7 N      1
    2    6 C      2-8, 10, 11, 13
    3    8 O      9, 12, 14, 19
    4    1 H      15-18, 20, 21

molecular fragmentation (1/2 indicates fragments):
111111111111111111222
# atoms in fragment 1/2:    18     3
 fragment masses (1/2) :      186.14       18.02
CMA distance (Bohr)    :  10.804
constraining FC (au)   :  0.0500

           -------------------------------------------------
          |                 G F N 2 - x T B                 |
           -------------------------------------------------

        Reference                      10.1021/acs.jctc.8b01176
      * Hamiltonian:
        H0-scaling (s, p, d)           1.850000    2.230000    2.230000
        zeta-weighting                 0.500000
      * Dispersion:
        s8                             2.700000
        a1                             0.520000
        a2                             5.000000
        s9                             5.000000
      * Repulsion:
        kExp                           1.500000    1.000000
        rExp                           1.000000
      * Coulomb:
        alpha                          2.000000
        third order                    shell-resolved
        anisotropic                    true
        a3                             3.000000
        a5                             4.000000
        cn-shift                       1.200000
        cn-exp                         4.000000
        max-rad                        5.000000


          ...................................................
          :                      SETUP                      :
          :.................................................:
          :  # basis functions                  66          :
          :  # atomic orbitals                  66          :
          :  # shells                           36          :
          :  # electrons                        75          :
          :  max. iterations                   250          :
          :  Hamiltonian                  GFN2-xTB          :
          :  restarted?                      false          :
          :  GBSA solvation                  false          :
          :  PC potential                    false          :
          :  electronic temp.          300.0000000     K    :
          :  accuracy                    1.0000000          :
          :  -> integral cutoff          0.2500000E+02      :
          :  -> integral neglect         0.1000000E-07      :
          :  -> SCF convergence          0.1000000E-05 Eh   :
          :  -> wf. convergence          0.1000000E-03 e    :
          :  Broyden damping             0.4000000          :
          ...................................................

 iter      E             dE          RMSdq      gap      omega  full diag
   1    -43.9731109 -0.439731E+02  0.629E+00    2.72       0.0  T
   2    -43.9347974  0.383136E-01  0.380E+00    1.58       1.0  T
   3    -43.9228730  0.119243E-01  0.331E+00    2.80       1.0  T
   4    -44.0643801 -0.141507E+00  0.153E+00    2.06       1.0  T
   5    -44.0935055 -0.291254E-01  0.748E-01    2.33       1.0  T
   6    -44.0954098 -0.190429E-02  0.591E-01    2.22       1.0  T
   7    -44.0959365 -0.526723E-03  0.312E-01    2.23       1.0  T
   8    -44.0966900 -0.753530E-03  0.790E-02    2.20       1.0  T
   9    -44.0967968 -0.106794E-03  0.333E-02    2.22       1.0  T
  10    -44.0968055 -0.865701E-05  0.160E-02    2.22       1.4  T
  11    -44.0968091 -0.360178E-05  0.404E-03    2.21       5.4  T
  12    -44.0968091 -0.442387E-07  0.230E-03    2.21       9.5  T
  13    -44.0968091 -0.247097E-07  0.112E-03    2.21      19.4  T
  14    -44.0968092 -0.435357E-08  0.461E-04    2.21      47.4  T
  15    -44.0968092 -0.265510E-08  0.193E-04    2.21     112.9  T

   *** convergence criteria satisfied after 15 iterations ***

         #    Occupation            Energy/Eh            Energy/eV
      -------------------------------------------------------------
         1        2.0000           -0.7826893             -21.2981
       ...           ...                  ...                  ...
        32        2.0000           -0.4763830             -12.9630
        33        2.0000           -0.4640736             -12.6281
        34        2.0000           -0.4558687             -12.4048
        35        2.0000           -0.4504091             -12.2563
        36        2.0000           -0.4486750             -12.2091
        37        1.9935           -0.4307612             -11.7216
        38        1.0065           -0.4211980             -11.4614 (HOMO)
        39                         -0.3398313              -9.2473 (LUMO)
        40                         -0.2952328              -8.0337
        41                         -0.2723100              -7.4099
        42                         -0.2516696              -6.8483
        43                         -0.2433390              -6.6216
       ...                                ...                  ...
        66                          1.0534110              28.6648
      -------------------------------------------------------------
                  HL-Gap            0.0813667 Eh            2.2141 eV
             Fermi-level           -0.4032471 Eh          -10.9729 eV

 SCC (total)                   0 d,  0 h,  0 min,  0.056 sec
 SCC setup                      ...        0 min,  0.001 sec (  0.906%)
 Dispersion                     ...        0 min,  0.000 sec (  0.872%)
 classical contributions        ...        0 min,  0.000 sec (  0.242%)
 integral evaluation            ...        0 min,  0.003 sec (  5.481%)
 iterations                     ...        0 min,  0.047 sec ( 83.860%)
 molecular gradient             ...        0 min,  0.004 sec (  7.448%)
 printout                       ...        0 min,  0.001 sec (  1.006%)

         :::::::::::::::::::::::::::::::::::::::::::::::::::::
         ::                     SUMMARY                     ::
         :::::::::::::::::::::::::::::::::::::::::::::::::::::
         :: total energy             -43.530027964135 Eh    ::
         :: gradient norm              0.152943333389 Eh/a0 ::
         :: HOMO-LUMO gap              2.214101268224 eV    ::
         ::.................................................::
         :: SCC energy               -44.096809156870 Eh    ::
         :: -> isotropic ES            0.105013439463 Eh    ::
         :: -> anisotropic ES          0.001767039847 Eh    ::
         :: -> anisotropic XC          0.022646792456 Eh    ::
         :: -> dispersion             -0.018809679202 Eh    ::
         :: repulsion energy           0.566726999002 Eh    ::
         :: add. restraining           0.000000000000 Eh    ::
         :: total charge               0.000000000049 e     ::
         :::::::::::::::::::::::::::::::::::::::::::::::::::::


Property printout bound to 'properties.out'

           -------------------------------------------------
          | TOTAL ENERGY              -43.530027964135 Eh   |
          | GRADIENT NORM               0.152943333389 Eh/α |
          | HOMO-LUMO GAP               2.214101268224 eV   |
           -------------------------------------------------

------------------------------------------------------------------------
 * finished run on 2025/01/14 at 21:03:41.939     
------------------------------------------------------------------------
 total:
 * wall-time:     0 d,  0 h,  0 min,  1.345 sec
 *  cpu-time:     0 d,  0 h,  0 min,  1.575 sec
 * ratio c/w:     1.170 speedup
 SCF:
 * wall-time:     0 d,  0 h,  0 min,  0.057 sec
 *  cpu-time:     0 d,  0 h,  0 min,  0.214 sec
 * ratio c/w:     3.767 speedup


-------------------------   --------------------
FINAL SINGLE POINT ENERGY       -43.530027964140
-------------------------   --------------------

------------------------------------------------------------------------------
                         ORCA GEOMETRY RELAXATION STEP
------------------------------------------------------------------------------

Reading the OPT-File                    .... done
Getting information on internals        .... done
Copying old internal coords+grads       .... done
Making the new internal coordinates     .... (new redundants).... done
Validating the new internal coordinates .... (new redundants).... done
Calculating the B-matrix                .... done
Calculating the G,G- and P matrices     .... done
Transforming gradient to internals      .... done
Projecting the internal gradient        .... done
Number of atoms                         ....  21
Number of internal coordinates          .... 143
Current Energy                          ....   -43.530027964 Eh
Current gradient norm                   ....     0.152943333 Eh/bohr
Maximum allowed component of the step   ....  0.300
Current trust radius                    ....  0.300
Evaluating the initial hessian          ....  (Almloef) done
Projecting the Hessian                  .... done
Forming the augmented Hessian           .... done
Diagonalizing the augmented Hessian     .... done
Last element of RFO vector              ....  0.983533843
Lowest eigenvalues of augmented Hessian:
 -0.017936112  0.000098803  0.002314970  0.016979321  0.019122580
Length of the computed step             ....  0.183749692
The final length of the internal step   ....  0.183749692
Converting the step to cartesian space:
 Initial RMS(Int)=    0.0153659212
Transforming coordinates:
 Iter   0:  RMS(Cart)=    0.0353928026 RMS(Int)=    1.5761456749
 Iter   1:  RMS(Cart)=    0.0003017584 RMS(Int)=    0.0001759455
 Iter   2:  RMS(Cart)=    0.0000057021 RMS(Int)=    0.0000036671
 Iter   3:  RMS(Cart)=    0.0000012355 RMS(Int)=    0.0000008033
 Iter   4:  RMS(Cart)=    0.0000006109 RMS(Int)=    0.0000003942
 Iter   5:  RMS(Cart)=    0.0000003009 RMS(Int)=    0.0000001941
 Iter   6:  RMS(Cart)=    0.0000001482 RMS(Int)=    0.0000000956
 Iter   7:  RMS(Cart)=    0.0000000730 RMS(Int)=    0.0000000471
done
Storing new coordinates                 .... done

                                .--------------------.
          ----------------------|Geometry convergence|-------------------------
          Item                value                   Tolerance       Converged
          ---------------------------------------------------------------------
          RMS gradient        0.0091834957            0.0001000000      NO
          MAX gradient        0.0412253727            0.0003000000      NO
          RMS step            0.0153659212            0.0020000000      NO
          MAX step            0.0567055579            0.0040000000      NO
          ........................................................
          Max(Bonds)      0.0300      Max(Angles)    1.15
          Max(Dihed)        1.65      Max(Improp)    0.00
          ---------------------------------------------------------------------

The optimization has not yet converged - more geometry cycles are needed


    ---------------------------------------------------------------------------
                         Redundant Internal Coordinates
                            (Angstroem and degrees)

        Definition                    Value    dE/dq     Step     New-Value
    ----------------------------------------------------------------------------
     1. B(C   1,N   0)                1.1617  0.039243 -0.0158    1.1459   
     2. B(C   2,C   1)                1.4203  0.006678 -0.0061    1.4142   
     3. B(C   3,C   2)                1.3407 -0.017453  0.0132    1.3538   
     4. B(C   4,C   3)                1.4517  0.023042 -0.0211    1.4306   
     5. B(C   5,C   4)                1.3886 -0.018802  0.0153    1.4039   
     6. B(C   6,C   5)                1.4030  0.034855 -0.0300    1.3730   
     7. B(C   7,C   6)                1.4095 -0.028260  0.0251    1.4346   
     8. B(O   8,C   7)                1.2731  0.036847 -0.0222    1.2509   
     9. B(C   9,C   7)                1.4064 -0.027040  0.0237    1.4302   
    10. B(C  10,C   9)                1.3965  0.025422 -0.0215    1.3750   
    11. B(C  10,C   4)                1.3862 -0.022655  0.0189    1.4051   
    12. B(O  11,C  10)                1.4084  0.028708 -0.0297    1.3787   
    13. B(C  12,C   2)                1.4794  0.000403 -0.0019    1.4775   
    14. B(C  12,O  11)                1.3886  0.021994 -0.0243    1.3643   
    15. B(O  13,C  12)                1.2282  0.041225 -0.0227    1.2055   
    16. B(H  14,C   3)                1.0854  0.002731 -0.0038    1.0816   
    17. B(H  15,C   5)                1.0846  0.004270 -0.0059    1.0787   
    18. B(H  16,C   6)                1.0904  0.005770 -0.0081    1.0823   
    19. B(H  17,C   9)                1.0885  0.005012 -0.0070    1.0815   
    20. B(O  18,O  13)                4.9994  0.003976 -0.0082    4.9912   
    21. B(O  18,C  12)                5.0785 -0.000709 -0.0019    5.0766   
    22. B(O  18,O  11)                5.0455 -0.001486 -0.0032    5.0423   
    23. B(H  19,O  18)                0.9690  0.007130 -0.0072    0.9618   
    24. B(H  20,O  13)                4.3537 -0.003548 -0.0010    4.3528   
    25. B(H  20,C  12)                4.6268 -0.000567  0.0006    4.6274   
    26. B(H  20,O  11)                4.7984  0.003635 -0.0091    4.7892   
    27. B(H  20,C   2)                5.3749  0.000788  0.0017    5.3765   
    28. B(H  20,O  18)                0.9690  0.005257 -0.0069    0.9621   
    29. L(N   0,C   1,C   2,C   3, 1) 176.97 -0.000859    0.10    177.06   
    30. L(N   0,C   1,C   2,C   3, 2) 180.00 -0.000068    0.01    180.01   
    31. A(C   1,C   2,C   3)          120.26 -0.002377    0.39    120.65   
    32. A(C   3,C   2,C  12)          121.54 -0.001252    0.00    121.54   
    33. A(C   1,C   2,C  12)          118.20  0.003629   -0.39    117.80   
    34. A(C   2,C   3,C   4)          119.98  0.005425   -0.47    119.51   
    35. A(C   2,C   3,H  14)          122.08 -0.002048    0.13    122.20   
    36. A(C   4,C   3,H  14)          117.94 -0.003377    0.35    118.29   
    37. A(C   5,C   4,C  10)          118.47 -0.005686    0.60    119.07   
    38. A(C   3,C   4,C  10)          119.20  0.006770   -0.71    118.49   
    39. A(C   3,C   4,C   5)          122.33 -0.001084    0.11    122.44   
    40. A(C   6,C   5,H  15)          118.63 -0.001388    0.25    118.88   
    41. A(C   4,C   5,H  15)          121.73  0.003941   -0.57    121.16   
    42. A(C   4,C   5,C   6)          119.63 -0.002553    0.33    119.96   
    43. A(C   5,C   6,H  16)          118.69 -0.004123    0.55    119.24   
    44. A(C   7,C   6,H  16)          117.89 -0.003215    0.42    118.30   
    45. A(C   5,C   6,C   7)          123.43  0.007338   -0.97    122.46   
    46. A(O   8,C   7,C   9)          122.63  0.004571   -0.60    122.03   
    47. A(C   6,C   7,O   8)          122.39  0.004085   -0.54    121.85   
    48. A(C   6,C   7,C   9)          114.97 -0.008656    1.15    116.12   
    49. A(C  10,C   9,H  17)          119.44 -0.001927    0.22    119.66   
    50. A(C   7,C   9,H  17)          118.57 -0.005217    0.74    119.31   
    51. A(C   7,C   9,C  10)          122.00  0.007144   -0.96    121.04   
    52. A(C   4,C  10,O  11)          120.79 -0.008560    0.73    121.52   
    53. A(C   4,C  10,C   9)          121.51  0.002413   -0.14    121.36   
    54. A(C   9,C  10,O  11)          117.70  0.006147   -0.58    117.12   
    55. A(C  10,O  11,C  12)          121.33 -0.002260    0.43    121.76   
    56. A(C  12,O  11,O  18)           83.47 -0.001083    0.21     83.68   
    57. A(C  10,O  11,O  18)          109.18  0.000838   -0.21    108.98   
    58. A(C   2,C  12,O  13)          121.61 -0.001583    1.10    122.72   
    59. A(O  11,C  12,O  13)          121.23  0.001706   -1.13    120.10   
    60. A(C   2,C  12,O  11)          117.16 -0.000123    0.03    117.18   
    61. A(O  13,C  12,O  18)           79.35  0.000983   -0.23     79.12   
    62. A(O  11,C  12,O  18)           80.77 -0.001268    0.06     80.83   
    63. A(C   2,C  12,O  18)          110.61  0.000403   -0.08    110.53   
    64. A(C  12,O  13,O  18)           86.68 -0.005343    0.49     87.16   
    65. A(H  19,O  18,H  20)          103.98 -0.002599    0.92    104.89   
    66. A(C  12,O  18,O  13)           13.97  0.004360   -0.25     13.72   
    67. A(O  11,O  18,O  13)           26.25  0.006095   -0.60     25.65   
    68. A(O  13,O  18,H  20)           43.93 -0.002947    0.22     44.15   
    69. A(O  13,O  18,H  19)          128.64 -0.003127    0.49    129.13   
    70. A(O  11,O  18,C  12)           15.76  0.002352   -0.27     15.49   
    71. A(C  12,O  18,H  20)           57.26  0.001272   -0.01     57.25   
    72. A(C  12,O  18,H  19)          128.07 -0.002501    0.22    128.30   
    73. A(O  11,O  18,H  20)           69.83  0.003286   -0.43     69.40   
    74. A(O  11,O  18,H  19)          138.74 -0.000972    0.07    138.81   
    75. D(H  14,C   3,C   2,C  12)   -180.00  0.000232   -0.05   -180.05   
    76. D(C   4,C   3,C   2,C   1)   -180.00  0.000245    0.05   -179.95   
    77. D(H  14,C   3,C   2,C   1)      0.00  0.000004    0.07      0.07   
    78. D(C   4,C   3,C   2,C  12)     -0.00  0.000473   -0.07     -0.07   
    79. D(C   5,C   4,C   3,C   2)   -180.00 -0.000267    0.06   -179.94   
    80. D(C  10,C   4,C   3,C   2)      0.00  0.000036    0.02      0.02   
    81. D(C  10,C   4,C   3,H  14)   -180.00  0.000267    0.00   -180.00   
    82. D(C   5,C   4,C   3,H  14)     -0.00 -0.000035    0.05      0.05   
    83. D(H  15,C   5,C   4,C  10)   -180.00 -0.000036   -0.00   -180.00   
    84. D(H  15,C   5,C   4,C   3)      0.00  0.000265   -0.05     -0.05   
    85. D(C   6,C   5,C   4,C  10)      0.00  0.000074   -0.03     -0.03   
    86. D(C   6,C   5,C   4,C   3)   -180.00  0.000375   -0.08   -180.08   
    87. D(C   7,C   6,C   5,H  15)    180.00  0.000148   -0.02    179.98   
    88. D(H  16,C   6,C   5,C   4)    180.00 -0.000042    0.03    180.03   
    89. D(C   7,C   6,C   5,C   4)     -0.00  0.000041    0.01      0.01   
    90. D(H  16,C   6,C   5,H  15)     -0.00  0.000064   -0.00     -0.00   
    91. D(C   9,C   7,C   6,H  16)   -180.00  0.000015    0.00   -180.00   
    92. D(C   9,C   7,C   6,C   5)      0.00 -0.000068    0.02      0.02   
    93. D(O   8,C   7,C   6,H  16)      0.00 -0.000021    0.06      0.06   
    94. D(O   8,C   7,C   6,C   5)   -180.00 -0.000104    0.08   -179.92   
    95. D(H  17,C   9,C   7,O   8)      0.00  0.000131   -0.14     -0.14   
    96. D(C  10,C   9,C   7,C   6)     -0.00 -0.000019   -0.03     -0.03   
    97. D(C  10,C   9,C   7,O   8)   -180.00  0.000016   -0.09   -180.09   
    98. D(H  17,C   9,C   7,C   6)    180.00  0.000095   -0.08    179.92   
    99. D(O  11,C  10,C   9,C   7)    180.00  0.000057    0.04    180.04   
   100. D(O  11,C  10,C   4,C   5)   -180.00 -0.000080   -0.01   -180.01   
   101. D(O  11,C  10,C   4,C   3)     -0.00 -0.000371    0.04      0.04   
   102. D(C   9,C  10,C   4,C   5)      0.00 -0.000161    0.03      0.03   
   103. D(C   4,C  10,C   9,H  17)    180.00  0.000021    0.05    180.05   
   104. D(C   9,C  10,C   4,C   3)    180.00 -0.000452    0.07    180.07   
   105. D(C   4,C  10,C   9,C   7)     -0.00  0.000136    0.00      0.00   
   106. D(O  11,C  10,C   9,H  17)     -0.00 -0.000058    0.09      0.09   
   107. D(O  18,O  11,C  10,C   9)    -85.95 -0.001428    0.23    -85.72   
   108. D(O  18,O  11,C  10,C   4)     94.05 -0.001507    0.26     94.32   
   109. D(C  12,O  11,C  10,C   9)    180.00  0.000263   -0.07    179.93   
   110. D(C  12,O  11,C  10,C   4)     -0.00  0.000185   -0.04     -0.04   
   111. D(O  13,C  12,O  11,O  18)     71.49 -0.000312    0.18     71.67   
   112. D(O  13,C  12,O  11,C  10)   -180.00 -0.000170    0.10   -179.90   
   113. D(C   2,C  12,O  11,O  18)   -108.51  0.000164    0.07   -108.44   
   114. D(C   2,C  12,O  11,C  10)      0.00  0.000306   -0.01     -0.01   
   115. D(O  18,C  12,C   2,C   3)    -90.02  0.000698    0.03    -89.99   
   116. D(O  18,C  12,C   2,C   1)     89.98  0.000921   -0.08     89.89   
   117. D(O  13,C  12,C   2,C   3)    180.00 -0.000166   -0.04    179.96   
   118. D(O  13,C  12,C   2,C   1)     -0.00  0.000057   -0.16     -0.16   
   119. D(O  11,C  12,C   2,C   3)     -0.00 -0.000644    0.07      0.07   
   120. D(O  18,C  12,O  11,C  10)    108.51  0.000142   -0.08    108.43   
   121. D(O  11,C  12,C   2,C   1)    180.00 -0.000421   -0.05    179.95   
   122. D(O  18,O  13,C  12,O  11)    -72.25  0.001547   -0.35    -72.60   
   123. D(O  18,O  13,C  12,C   2)    107.75  0.001050   -0.24    107.51   
   124. D(H  20,O  18,C  12,O  13)     15.83 -0.001238   -0.08     15.75   
   125. D(H  20,O  18,C  12,O  11)    140.24  0.000695   -1.23    139.00   
   126. D(H  20,O  18,C  12,C   2)   -104.11  0.000134   -1.19   -105.30   
   127. D(H  19,O  18,C  12,O  11)   -137.75 -0.000131   -0.06   -137.81   
   128. D(H  19,O  18,C  12,C   2)    -22.09 -0.000692   -0.01    -22.10   
   129. D(O  13,O  18,O  11,C  12)    -26.77 -0.001939   -0.50    -27.27   
   130. D(O  13,O  18,O  11,C  10)   -147.72  0.000762   -1.01   -148.73   
   131. D(C  12,O  18,O  11,C  10)   -120.95  0.002701   -0.51   -121.46   
   132. D(H  19,O  18,C  12,O  13)     97.85 -0.002064    1.09     98.94   
   133. D(H  20,O  18,O  11,C  12)    -34.97  0.000856   -1.14    -36.11   
   134. D(H  20,O  18,O  11,C  10)   -155.92  0.003557   -1.65   -157.57   
   135. D(H  19,O  18,O  11,C  12)     53.39  0.000951   -0.22     53.17   
   136. D(O  11,O  18,C  12,C   2)    115.65 -0.000561    0.05    115.70   
   137. D(H  19,O  18,O  11,C  10)    -67.56  0.003653   -0.73    -68.29   
   138. D(O  11,O  18,O  13,C  12)     30.45 -0.003146    0.61     31.06   
   139. D(H  20,O  18,O  13,C  12)   -160.68 -0.000170   -0.19   -160.87   
   140. D(H  19,O  18,O  13,C  12)    -93.27 -0.004479    1.16    -92.11   
   141. D(O  13,O  18,C  12,O  11)    124.40  0.001932   -1.15    123.25   
   142. D(O  13,O  18,C  12,C   2)   -119.94  0.001371   -1.10   -121.04   
   143. D(O  11,O  18,C  12,O  13)   -124.40 -0.001932    1.15   -123.25   
    ----------------------------------------------------------------------------

         *************************************************************
         *                GEOMETRY OPTIMIZATION CYCLE   2            *
         *************************************************************
---------------------------------
CARTESIAN COORDINATES (ANGSTROEM)
---------------------------------
  N    -0.945148   -4.655990   -0.275957
  C    -0.795755   -3.545306   -0.036936
  C    -0.580809   -2.166545    0.192859
  C     0.009722   -1.393652   -0.748846
  C     0.216201   -0.001842   -0.490175
  C     0.820823    0.855688   -1.422903
  C     0.992534    2.184241   -1.122098
  C     0.574432    2.750853    0.127799
  O     0.735029    3.963459    0.389517
  C    -0.036887    1.849242    1.054480
  C    -0.204826    0.520184    0.744622
  O    -0.804277   -0.276267    1.697058
  C    -1.018694   -1.607294    1.488450
  O    -1.547073   -2.275521    2.341426
  H     0.335111   -1.791944   -1.700394
  H     1.156669    0.490738   -2.380840
  H     1.459638    2.835056   -1.849905
  H    -0.370533    2.221495    2.013521
  O     2.714998   -1.916581    4.914073
  H     3.473613   -2.507741    4.917221
  H     1.948459   -2.497850    4.925725

----------------------------
CARTESIAN COORDINATES (A.U.)
----------------------------
  NO LB    ZA    FRAG    MASS        X           Y           Z
   0 N   7.0000    0    14.007   -1.786071   -8.798545   -0.521484
   1 C   6.0000    0    12.011   -1.503759   -6.699657   -0.069799
   2 C   6.0000    0    12.011   -1.097570   -4.094176    0.364451
   3 C   6.0000    0    12.011    0.018372   -2.633621   -1.415114
   4 C   6.0000    0    12.011    0.408560   -0.003480   -0.926296
   5 C   6.0000    0    12.011    1.551131    1.617016   -2.688898
   6 C   6.0000    0    12.011    1.875618    4.127617   -2.120458
   7 C   6.0000    0    12.011    1.085519    5.198358    0.241504
   8 O   8.0000    0    15.999    1.389003    7.489853    0.736081
   9 C   6.0000    0    12.011   -0.069705    3.494561    1.992679
  10 C   6.0000    0    12.011   -0.387066    0.983004    1.407132
  11 O   8.0000    0    15.999   -1.519864   -0.522070    3.206975
  12 C   6.0000    0    12.011   -1.925053   -3.037346    2.812763
  13 O   8.0000    0    15.999   -2.923544   -4.300112    4.424653
  14 H   1.0000    0     1.008    0.633268   -3.386284   -3.213280
  15 H   1.0000    0     1.008    2.185788    0.927361   -4.499135
  16 H   1.0000    0     1.008    2.758316    5.357480   -3.495813
  17 H   1.0000    0     1.008   -0.700205    4.198017    3.805004
  18 O   8.0000    0    15.999    5.130602   -3.621813    9.286252
  19 H   1.0000    0     1.008    6.564177   -4.738944    9.292201
  20 H   1.0000    0     1.008    3.682054   -4.720253    9.308272

      -----------------------------------------------------------      
     |                   =====================                   |     
     |                           x T B                           |     
     |                   =====================                   |     
     |                         S. Grimme                         |     
     |          Mulliken Center for Theoretical Chemistry        |     
     |                    University of Bonn                     |     
      -----------------------------------------------------------      

   * xtb version 6.6.1 (8d0f1dd) compiled by 'stahn@M-Bot' on 2023-08-01

   xtb is free software: you can redistribute it and/or modify it under
   the terms of the GNU Lesser General Public License as published by
   the Free Software Foundation, either version 3 of the License, or
   (at your option) any later version.
   
   xtb is distributed in the hope that it will be useful,
   but WITHOUT ANY WARRANTY; without even the implied warranty of
   MERCHANTABILITY or FITNESS FOR A PARTICULAR PURPOSE.  See the
   GNU Lesser General Public License for more details.
   
   Cite this work as:
   * C. Bannwarth, E. Caldeweyher, S. Ehlert, A. Hansen, P. Pracht,
     J. Seibert, S. Spicher, S. Grimme, WIREs Comput. Mol. Sci., 2020, 11,
     e01493. DOI: 10.1002/wcms.1493
   
   for GFN2-xTB:
   * C. Bannwarth, S. Ehlert and S. Grimme., J. Chem. Theory Comput., 2019,
     15, 1652-1671. DOI: 10.1021/acs.jctc.8b01176
   for GFN1-xTB:
   * S. Grimme, C. Bannwarth, P. Shushkov, J. Chem. Theory Comput., 2017,
     13, 1989-2009. DOI: 10.1021/acs.jctc.7b00118
   for GFN0-xTB:
   * P. Pracht, E. Caldeweyher, S. Ehlert, S. Grimme, ChemRxiv, 2019, preprint.
     DOI: 10.26434/chemrxiv.8326202.v1
   for GFN-FF:
   * S. Spicher and S. Grimme, Angew. Chem. Int. Ed., 2020, 59, 15665-15673.
     DOI: 10.1002/anie.202004239
   
   for ALPB and GBSA implicit solvation:
   * S. Ehlert, M. Stahn, S. Spicher, S. Grimme, J. Chem. Theory Comput.,
     2021, 17, 4250-4261. DOI: 10.1021/acs.jctc.1c00471
   
   for DFT-D4:
   * E. Caldeweyher, C. Bannwarth and S. Grimme, J. Chem. Phys., 2017,
     147, 034112. DOI: 10.1063/1.4993215
   * E. Caldeweyher, S. Ehlert, A. Hansen, H. Neugebauer, S. Spicher,
     C. Bannwarth and S. Grimme, J. Chem. Phys., 2019, 150, 154122.
     DOI: 10.1063/1.5090222
   * E. Caldeweyher, J.-M. Mewes, S. Ehlert and S. Grimme, Phys. Chem. Chem. Phys.
     2020, 22, 8499-8512. DOI: 10.1039/D0CP00502A
   
   for sTDA-xTB:
   * S. Grimme and C. Bannwarth, J. Chem. Phys., 2016, 145, 054103.
     DOI: 10.1063/1.4959605
   
   in the mass-spec context:
   * V. Asgeirsson, C. Bauer and S. Grimme, Chem. Sci., 2017, 8, 4879.
     DOI: 10.1039/c7sc00601b
   * J. Koopman and S. Grimme, ACS Omega 2019, 4, 12, 15120-15133.
     DOI: 10.1021/acsomega.9b02011
   
   for metadynamics refer to:
   * S. Grimme, J. Chem. Theory Comput., 2019, 155, 2847-2862
     DOI: 10.1021/acs.jctc.9b00143
   
   for SPH calculations refer to:
   * S. Spicher and S. Grimme, J. Chem. Theory Comput., 2021, 17, 1701-1714
     DOI: 10.1021/acs.jctc.0c01306
   
   with help from (in alphabetical order)
   P. Atkinson, C. Bannwarth, F. Bohle, G. Brandenburg, E. Caldeweyher
   M. Checinski, S. Dohm, S. Ehlert, S. Ehrlich, I. Gerasimov, C. Hölzer
   A. Katbashev, J. Koopman, C. Lavigne, S. Lehtola, F. März, M. Müller,
   F. Musil, H. Neugebauer, J. Pisarek, C. Plett, P. Pracht, F. Pultar,
   J. Seibert, P. Shushkov, S. Spicher, M. Stahn, M. Steiner, T. Strunk,
   J. Stückrath, T. Rose, and J. Unsleber
   
 * started run on 2025/01/14 at 21:03:57.208     

           -------------------------------------------------
          |                Calculation Setup                |
           -------------------------------------------------

          program call               : /home/jang/cal_tmp/10_orca/orca_5_0_4_linux_x86-64_shared_openmpi411/otool_xtb /home/jang/cal_tmp/10_orca/Gen_chromophore/Gen_molecular_pairs_cal/mol_2_5.xyz/input_XTB.xyz --grad -c 0 -u 0 -P 4 --namespace /home/jang/cal_tmp/10_orca/Gen_chromophore/Gen_molecular_pairs_cal/mol_2_5.xyz/input --input /home/jang/cal_tmp/10_orca/Gen_chromophore/Gen_molecular_pairs_cal/mol_2_5.xyz/input_XTB.input.tmp --acc 1.000000
          hostname                   : node02
          calculation namespace      : /home/jang/cal_tmp/10_orca/Gen_chromophore/Gen_molecular_pairs_cal/mol_2_5.xyz/input
          coordinate file            : /home/jang/cal_tmp/10_orca/Gen_chromophore/Gen_molecular_pairs_cal/mol_2_5.xyz/input_XTB.xyz
          omp threads                :                     4

   ID    Z sym.   atoms
    1    7 N      1
    2    6 C      2-8, 10, 11, 13
    3    8 O      9, 12, 14, 19
    4    1 H      15-18, 20, 21

molecular fragmentation (1/2 indicates fragments):
111111111111111111222
# atoms in fragment 1/2:    18     3
 fragment masses (1/2) :      186.14       18.02
CMA distance (Bohr)    :  10.784
constraining FC (au)   :  0.0500

           -------------------------------------------------
          |                 G F N 2 - x T B                 |
           -------------------------------------------------

        Reference                      10.1021/acs.jctc.8b01176
      * Hamiltonian:
        H0-scaling (s, p, d)           1.850000    2.230000    2.230000
        zeta-weighting                 0.500000
      * Dispersion:
        s8                             2.700000
        a1                             0.520000
        a2                             5.000000
        s9                             5.000000
      * Repulsion:
        kExp                           1.500000    1.000000
        rExp                           1.000000
      * Coulomb:
        alpha                          2.000000
        third order                    shell-resolved
        anisotropic                    true
        a3                             3.000000
        a5                             4.000000
        cn-shift                       1.200000
        cn-exp                         4.000000
        max-rad                        5.000000

q/qsh data taken from xtbrestart
CAMM data taken from xtbrestart

          ...................................................
          :                      SETUP                      :
          :.................................................:
          :  # basis functions                  66          :
          :  # atomic orbitals                  66          :
          :  # shells                           36          :
          :  # electrons                        75          :
          :  max. iterations                   250          :
          :  Hamiltonian                  GFN2-xTB          :
          :  restarted?                       true          :
          :  GBSA solvation                  false          :
          :  PC potential                    false          :
          :  electronic temp.          300.0000000     K    :
          :  accuracy                    1.0000000          :
          :  -> integral cutoff          0.2500000E+02      :
          :  -> integral neglect         0.1000000E-07      :
          :  -> SCF convergence          0.1000000E-05 Eh   :
          :  -> wf. convergence          0.1000000E-03 e    :
          :  Broyden damping             0.4000000          :
          ...................................................

 iter      E             dE          RMSdq      gap      omega  full diag
   1    -44.1353740 -0.441354E+02  0.280E-01    2.22       0.0  T
   2    -44.1356789 -0.304900E-03  0.177E-01    2.22       1.0  T
   3    -44.1357295 -0.505746E-04  0.988E-02    2.22       1.0  T
   4    -44.1357518 -0.222996E-04  0.288E-02    2.22       1.0  T
   5    -44.1357643 -0.125017E-04  0.108E-02    2.22       2.0  T
   6    -44.1357662 -0.197225E-05  0.437E-03    2.22       5.0  T
   7    -44.1357664 -0.128780E-06  0.264E-03    2.22       8.3  T
   8    -44.1357664 -0.431814E-07  0.119E-03    2.22      18.3  T
   9    -44.1357664 -0.162085E-07  0.479E-04    2.22      45.6  T
  10    -44.1357664 -0.347471E-08  0.218E-04    2.22     100.1  T

   *** convergence criteria satisfied after 10 iterations ***

         #    Occupation            Energy/Eh            Energy/eV
      -------------------------------------------------------------
         1        2.0000           -0.7899562             -21.4958
       ...           ...                  ...                  ...
        32        2.0000           -0.4759082             -12.9501
        33        2.0000           -0.4622355             -12.5781
        34        2.0000           -0.4565189             -12.4225
        35        2.0000           -0.4488816             -12.2147
        36        2.0000           -0.4487243             -12.2104
        37        1.9969           -0.4283382             -11.6557
        38        1.0031           -0.4173796             -11.3575 (HOMO)
        39                         -0.3357650              -9.1366 (LUMO)
        40                         -0.2884029              -7.8478
        41                         -0.2642393              -7.1903
        42                         -0.2431793              -6.6172
        43                         -0.2400282              -6.5315
       ...                                ...                  ...
        66                          1.1349178              30.8827
      -------------------------------------------------------------
                  HL-Gap            0.0816146 Eh            2.2208 eV
             Fermi-level           -0.3997156 Eh          -10.8768 eV

 SCC (total)                   0 d,  0 h,  0 min,  0.037 sec
 SCC setup                      ...        0 min,  0.000 sec (  0.797%)
 Dispersion                     ...        0 min,  0.000 sec (  0.838%)
 classical contributions        ...        0 min,  0.000 sec (  0.132%)
 integral evaluation            ...        0 min,  0.003 sec (  7.365%)
 iterations                     ...        0 min,  0.029 sec ( 76.757%)
 molecular gradient             ...        0 min,  0.005 sec ( 12.945%)
 printout                       ...        0 min,  0.000 sec (  1.007%)

         :::::::::::::::::::::::::::::::::::::::::::::::::::::
         ::                     SUMMARY                     ::
         :::::::::::::::::::::::::::::::::::::::::::::::::::::
         :: total energy             -43.542240689373 Eh    ::
         :: gradient norm              0.069347431487 Eh/a0 ::
         :: HOMO-LUMO gap              2.220845551908 eV    ::
         ::.................................................::
         :: SCC energy               -44.135766437458 Eh    ::
         :: -> isotropic ES            0.103566423725 Eh    ::
         :: -> anisotropic ES          0.001839586743 Eh    ::
         :: -> anisotropic XC          0.021642964292 Eh    ::
         :: -> dispersion             -0.018927273571 Eh    ::
         :: repulsion energy           0.593466418190 Eh    ::
         :: add. restraining           0.000000000000 Eh    ::
         :: total charge               0.000000000003 e     ::
         :::::::::::::::::::::::::::::::::::::::::::::::::::::


Property printout bound to 'properties.out'

           -------------------------------------------------
          | TOTAL ENERGY              -43.542240689373 Eh   |
          | GRADIENT NORM               0.069347431487 Eh/α |
          | HOMO-LUMO GAP               2.220845551908 eV   |
           -------------------------------------------------

------------------------------------------------------------------------
 * finished run on 2025/01/14 at 21:03:57.657     
------------------------------------------------------------------------
 total:
 * wall-time:     0 d,  0 h,  0 min,  0.447 sec
 *  cpu-time:     0 d,  0 h,  0 min,  1.187 sec
 * ratio c/w:     2.656 speedup
 SCF:
 * wall-time:     0 d,  0 h,  0 min,  0.037 sec
 *  cpu-time:     0 d,  0 h,  0 min,  0.138 sec
 * ratio c/w:     3.678 speedup


-------------------------   --------------------
FINAL SINGLE POINT ENERGY       -43.542240689370
-------------------------   --------------------

------------------------------------------------------------------------------
                         ORCA GEOMETRY RELAXATION STEP
------------------------------------------------------------------------------

Reading the OPT-File                    .... done
Getting information on internals        .... done
Copying old internal coords+grads       .... done
Making the new internal coordinates     .... (new redundants).... done
Validating the new internal coordinates .... (new redundants).... done
Calculating the B-matrix                .... done
Calculating the G,G- and P matrices     .... done
Transforming gradient to internals      .... done
Projecting the internal gradient        .... done
Number of atoms                         ....  21
Number of internal coordinates          .... 143
Current Energy                          ....   -43.542240689 Eh
Current gradient norm                   ....     0.069347431 Eh/bohr
Maximum allowed component of the step   ....  0.300
Current trust radius                    ....  0.300
Updating the Hessian (BFGS)             .... done
Forming the augmented Hessian           .... done
Diagonalizing the augmented Hessian     .... done
Last element of RFO vector              ....  0.987510296
Lowest eigenvalues of augmented Hessian:
 -0.004967582  0.000102012  0.002332256  0.016981889  0.019114287
Length of the computed step             ....  0.159547178
The final length of the internal step   ....  0.159547178
Converting the step to cartesian space:
 Initial RMS(Int)=    0.0133420052
Transforming coordinates:
 Iter   0:  RMS(Cart)=    0.0187430151 RMS(Int)=    0.5255093679
 Iter   1:  RMS(Cart)=    0.0001786943 RMS(Int)=    0.0001328682
 Iter   2:  RMS(Cart)=    0.0000060389 RMS(Int)=    0.0000064380
 Iter   3:  RMS(Cart)=    0.0000016141 RMS(Int)=    0.0000010527
 Iter   4:  RMS(Cart)=    0.0000007955 RMS(Int)=    0.0000005169
 Iter   5:  RMS(Cart)=    0.0000003941 RMS(Int)=    0.0000002563
 Iter   6:  RMS(Cart)=    0.0000001954 RMS(Int)=    0.0000001271
 Iter   7:  RMS(Cart)=    0.0000000969 RMS(Int)=    0.0000000630
done
Storing new coordinates                 .... done

                                .--------------------.
          ----------------------|Geometry convergence|-------------------------
          Item                value                   Tolerance       Converged
          ---------------------------------------------------------------------
          Energy change      -0.0122127252            0.0000050000      NO
          RMS gradient        0.0034360872            0.0001000000      NO
          MAX gradient        0.0200460368            0.0003000000      NO
          RMS step            0.0133420052            0.0020000000      NO
          MAX step            0.0464644677            0.0040000000      NO
          ........................................................
          Max(Bonds)      0.0210      Max(Angles)    1.30
          Max(Dihed)        2.66      Max(Improp)    0.00
          ---------------------------------------------------------------------

The optimization has not yet converged - more geometry cycles are needed


    ---------------------------------------------------------------------------
                         Redundant Internal Coordinates
                            (Angstroem and degrees)

        Definition                    Value    dE/dq     Step     New-Value
    ----------------------------------------------------------------------------
     1. B(C   1,N   0)                1.1459  0.000221 -0.0013    1.1445   
     2. B(C   2,C   1)                1.4142  0.002230 -0.0036    1.4106   
     3. B(C   3,C   2)                1.3538 -0.009126  0.0119    1.3658   
     4. B(C   4,C   3)                1.4306  0.010947 -0.0172    1.4134   
     5. B(C   5,C   4)                1.4039 -0.008845  0.0122    1.4161   
     6. B(C   6,C   5)                1.3730  0.012153 -0.0184    1.3545   
     7. B(C   7,C   6)                1.4346 -0.013448  0.0205    1.4551   
     8. B(O   8,C   7)                1.2509  0.020046 -0.0204    1.2304   
     9. B(C   9,C   7)                1.4302 -0.012456  0.0188    1.4490   
    10. B(C  10,C   9)                1.3750  0.005220 -0.0084    1.3666   
    11. B(C  10,C   4)                1.4052 -0.011066  0.0152    1.4204   
    12. B(O  11,C  10)                1.3787  0.011346 -0.0210    1.3577   
    13. B(C  12,C   2)                1.4775 -0.000772  0.0012    1.4787   
    14. B(C  12,O  11)                1.3642  0.004523 -0.0107    1.3535   
    15. B(O  13,C  12)                1.2055  0.007961 -0.0083    1.1972   
    16. B(H  14,C   3)                1.0816  0.000417 -0.0011    1.0805   
    17. B(H  15,C   5)                1.0787 -0.000109 -0.0001    1.0786   
    18. B(H  16,C   6)                1.0823  0.001456 -0.0037    1.0786   
    19. B(H  17,C   9)                1.0815  0.001542 -0.0038    1.0777   
    20. B(O  18,O  13)                4.9913  0.000986 -0.0130    4.9783   
    21. B(O  18,C  12)                5.0765 -0.000185 -0.0080    5.0685   
    22. B(O  18,O  11)                5.0423 -0.000749 -0.0063    5.0360   
    23. B(H  19,O  18)                0.9618  0.001190 -0.0024    0.9594   
    24. B(H  20,O  13)                4.3528 -0.000219 -0.0103    4.3425   
    25. B(H  20,C  12)                4.6273  0.000196 -0.0053    4.6220   
    26. B(H  20,O  11)                4.7893  0.000754 -0.0101    4.7792   
    27. B(H  20,C   2)                5.3765  0.000084  0.0006    5.3771   
    28. B(H  20,O  18)                0.9621  0.001196 -0.0023    0.9597   
    29. L(N   0,C   1,C   2,C   3, 1) 177.06 -0.001289    0.24    177.30   
    30. L(N   0,C   1,C   2,C   3, 2) 180.01 -0.000068    0.01    180.02   
    31. A(C   1,C   2,C   3)          120.65 -0.001807    0.39    121.05   
    32. A(C   3,C   2,C  12)          121.54  0.000493   -0.10    121.44   
    33. A(C   1,C   2,C  12)          117.80  0.001314   -0.29    117.51   
    34. A(C   2,C   3,C   4)          119.51  0.001014   -0.02    119.49   
    35. A(C   2,C   3,H  14)          122.20  0.001188   -0.41    121.79   
    36. A(C   4,C   3,H  14)          118.29 -0.002202    0.43    118.72   
    37. A(C   5,C   4,C  10)          119.07 -0.000693    0.09    119.16   
    38. A(C   3,C   4,C  10)          118.49  0.001529   -0.32    118.17   
    39. A(C   3,C   4,C   5)          122.43 -0.000836    0.23    122.66   
    40. A(C   6,C   5,H  15)          118.88 -0.002345    0.67    119.55   
    41. A(C   4,C   5,H  15)          121.16  0.005488   -1.30    119.86   
    42. A(C   4,C   5,C   6)          119.96 -0.003143    0.63    120.59   
    43. A(C   5,C   6,H  16)          119.24 -0.003831    0.94    120.18   
    44. A(C   7,C   6,H  16)          118.30  0.001168   -0.31    118.00   
    45. A(C   5,C   6,C   7)          122.45  0.002663   -0.63    121.82   
    46. A(O   8,C   7,C   9)          122.04  0.000727   -0.19    121.84   
    47. A(C   6,C   7,O   8)          121.85  0.000886   -0.22    121.63   
    48. A(C   6,C   7,C   9)          116.11 -0.001613    0.42    116.53   
    49. A(C  10,C   9,H  17)          119.66 -0.001157    0.29    119.95   
    50. A(C   7,C   9,H  17)          119.31 -0.000171    0.07    119.38   
    51. A(C   7,C   9,C  10)          121.03  0.001327   -0.36    120.68   
    52. A(C   4,C  10,O  11)          121.52 -0.001833   -0.00    121.51   
    53. A(C   4,C  10,C   9)          121.37  0.001459   -0.15    121.22   
    54. A(C   9,C  10,O  11)          117.12  0.000374    0.15    117.27   
    55. A(C  10,O  11,C  12)          121.76 -0.001934    0.97    122.73   
    56. A(C  12,O  11,O  18)           83.68 -0.000072   -0.01     83.67   
    57. A(C  10,O  11,O  18)          108.98  0.000330   -0.18    108.80   
    58. A(C   2,C  12,O  13)          122.72 -0.001376    1.22    123.94   
    59. A(O  11,C  12,O  13)          120.10  0.000645   -0.70    119.40   
    60. A(C   2,C  12,O  11)          117.18  0.000731   -0.52    116.66   
    61. A(O  13,C  12,O  18)           79.11  0.000339   -0.22     78.89   
    62. A(O  11,C  12,O  18)           80.83 -0.000417    0.11     80.94   
    63. A(C   2,C  12,O  18)          110.53  0.000308   -0.16    110.36   
    64. A(C  12,O  13,O  18)           87.17 -0.001183    0.29     87.46   
    65. A(H  19,O  18,H  20)          104.90 -0.001486    1.25    106.14   
    66. A(C  12,O  18,O  13)           13.72  0.000844   -0.07     13.65   
    67. A(O  11,O  18,O  13)           25.65  0.001246   -0.23     25.42   
    68. A(O  13,O  18,H  20)           44.15 -0.000326    0.08     44.23   
    69. A(O  13,O  18,H  19)          129.13 -0.001482    0.43    129.55   
    70. A(O  11,O  18,C  12)           15.49  0.000489   -0.10     15.39   
    71. A(C  12,O  18,H  20)           57.25  0.000501    0.11     57.35   
    72. A(C  12,O  18,H  19)          128.30 -0.001224    0.29    128.60   
    73. A(O  11,O  18,H  20)           69.40  0.000945   -0.26     69.14   
    74. A(O  11,O  18,H  19)          138.81 -0.000781    0.25    139.06   
    75. D(H  14,C   3,C   2,C  12)    179.95  0.000049   -0.03    179.92   
    76. D(C   4,C   3,C   2,C   1)   -179.95 -0.000050    0.12   -179.83   
    77. D(H  14,C   3,C   2,C   1)      0.07 -0.000069    0.10      0.16   
    78. D(C   4,C   3,C   2,C  12)     -0.07  0.000068   -0.00     -0.07   
    79. D(C   5,C   4,C   3,C   2)   -179.94 -0.000061    0.02   -179.92   
    80. D(C  10,C   4,C   3,C   2)      0.02  0.000012    0.03      0.05   
    81. D(C  10,C   4,C   3,H  14)   -180.00  0.000031    0.06   -179.94   
    82. D(C   5,C   4,C   3,H  14)      0.05 -0.000042    0.05      0.09   
    83. D(H  15,C   5,C   4,C  10)    180.00  0.000007   -0.04    179.96   
    84. D(H  15,C   5,C   4,C   3)     -0.05  0.000082   -0.03     -0.08   
    85. D(C   6,C   5,C   4,C  10)     -0.03  0.000038   -0.05     -0.08   
    86. D(C   6,C   5,C   4,C   3)    179.92  0.000112   -0.04    179.88   
    87. D(C   7,C   6,C   5,H  15)    179.98  0.000045   -0.01    179.97   
    88. D(H  16,C   6,C   5,C   4)   -179.97 -0.000019    0.02   -179.95   
    89. D(C   7,C   6,C   5,C   4)      0.01  0.000013   -0.00      0.00   
    90. D(H  16,C   6,C   5,H  15)     -0.00  0.000013    0.02      0.02   
    91. D(C   9,C   7,C   6,H  16)   -180.00 -0.000007    0.03   -179.96   
    92. D(C   9,C   7,C   6,C   5)      0.02 -0.000038    0.06      0.08   
    93. D(O   8,C   7,C   6,H  16)      0.06 -0.000026    0.08      0.15   
    94. D(O   8,C   7,C   6,C   5)   -179.92 -0.000057    0.11   -179.81   
    95. D(H  17,C   9,C   7,O   8)     -0.14  0.000073   -0.16     -0.30   
    96. D(C  10,C   9,C   7,C   6)     -0.03  0.000012   -0.07     -0.10   
    97. D(C  10,C   9,C   7,O   8)    179.91  0.000031   -0.12    179.79   
    98. D(H  17,C   9,C   7,C   6)    179.92  0.000054   -0.11    179.81   
    99. D(O  11,C  10,C   9,C   7)   -179.96 -0.000017    0.09   -179.87   
   100. D(O  11,C  10,C   4,C   5)    179.99 -0.000004   -0.03    179.96   
   101. D(O  11,C  10,C   4,C   3)      0.04 -0.000075   -0.04     -0.01   
   102. D(C   9,C  10,C   4,C   5)      0.03 -0.000062    0.03      0.06   
   103. D(C   4,C  10,C   9,H  17)   -179.95 -0.000005    0.07   -179.88   
   104. D(C   9,C  10,C   4,C   3)   -179.93 -0.000132    0.02   -179.90   
   105. D(C   4,C  10,C   9,C   7)      0.00  0.000037    0.03      0.03   
   106. D(O  11,C  10,C   9,H  17)      0.09 -0.000059    0.13      0.22   
   107. D(O  18,O  11,C  10,C   9)    -85.72 -0.000524    0.22    -85.50   
   108. D(O  18,O  11,C  10,C   4)     94.32 -0.000580    0.28     94.60   
   109. D(C  12,O  11,C  10,C   9)    179.93  0.000110   -0.04    179.89   
   110. D(C  12,O  11,C  10,C   4)     -0.04  0.000054    0.03     -0.01   
   111. D(O  13,C  12,O  11,O  18)     71.66 -0.000100    0.06     71.72   
   112. D(O  13,C  12,O  11,C  10)   -179.91  0.000072   -0.07   -179.98   
   113. D(C   2,C  12,O  11,O  18)   -108.45 -0.000144    0.13   -108.32   
   114. D(C   2,C  12,O  11,C  10)     -0.01  0.000027    0.00     -0.01   
   115. D(O  18,C  12,C   2,C   3)    -89.99 -0.000027    0.14    -89.86   
   116. D(O  18,C  12,C   2,C   1)     89.89  0.000084    0.01     89.91   
   117. D(O  13,C  12,C   2,C   3)    179.96 -0.000133    0.06    180.01   
   118. D(O  13,C  12,C   2,C   1)     -0.16 -0.000022   -0.07     -0.22   
   119. D(O  11,C  12,C   2,C   3)      0.07 -0.000089   -0.01      0.05   
   120. D(O  18,C  12,O  11,C  10)    108.43  0.000171   -0.13    108.30   
   121. D(O  11,C  12,C   2,C   1)    179.95  0.000022   -0.14    179.81   
   122. D(O  18,O  13,C  12,O  11)    -72.60  0.000528   -0.25    -72.85   
   123. D(O  18,O  13,C  12,C   2)    107.51  0.000573   -0.33    107.18   
   124. D(H  20,O  18,C  12,O  13)     15.75 -0.000355   -1.12     14.63   
   125. D(H  20,O  18,C  12,O  11)    139.00  0.000366   -1.82    137.18   
   126. D(H  20,O  18,C  12,C   2)   -105.30  0.001005   -2.35   -107.64   
[...]
    83. D(H  15,C   5,C   4,C  10)    179.86 -0.000002    0.01    179.87   
    84. D(H  15,C   5,C   4,C   3)      0.28  0.000001    0.00      0.28   
    85. D(C   6,C   5,C   4,C  10)      0.01 -0.000000    0.00      0.01   
    86. D(C   6,C   5,C   4,C   3)   -179.58  0.000003   -0.00   -179.58   
    87. D(C   7,C   6,C   5,H  15)   -179.91 -0.000000    0.00   -179.90   
    88. D(H  16,C   6,C   5,C   4)    179.87 -0.000001    0.00    179.88   
    89. D(C   7,C   6,C   5,C   4)     -0.06 -0.000002    0.01     -0.05   
    90. D(H  16,C   6,C   5,H  15)      0.02  0.000001   -0.00      0.02   
    91. D(C   9,C   7,C   6,H  16)   -179.90  0.000004   -0.02   -179.92   
    92. D(C   9,C   7,C   6,C   5)      0.03  0.000004   -0.02      0.01   
    93. D(O   8,C   7,C   6,H  16)      0.06  0.000003   -0.02      0.04   
    94. D(O   8,C   7,C   6,C   5)    180.00  0.000004   -0.03    179.97   
    95. D(H  17,C   9,C   7,O   8)     -0.00 -0.000002    0.02      0.01   
    96. D(C  10,C   9,C   7,C   6)      0.05 -0.000005    0.02      0.07   
    97. D(C  10,C   9,C   7,O   8)   -179.92 -0.000005    0.03   -179.89   
    98. D(H  17,C   9,C   7,C   6)    179.96 -0.000002    0.01    179.98   
    99. D(O  11,C  10,C   9,C   7)   -179.86  0.000002   -0.01   -179.87   
   100. D(O  11,C  10,C   4,C   5)    179.83  0.000001   -0.00    179.83   
   101. D(O  11,C  10,C   4,C   3)     -0.57 -0.000001    0.01     -0.56   
   102. D(C   9,C  10,C   4,C   5)      0.07 -0.000000   -0.00      0.07   
   103. D(C   4,C  10,C   9,H  17)    179.99  0.000000    0.00    179.99   
   104. D(C   9,C  10,C   4,C   3)    179.67 -0.000003    0.00    179.67   
   105. D(C   4,C  10,C   9,C   7)     -0.10  0.000003   -0.01     -0.11   
   106. D(O  11,C  10,C   9,H  17)      0.23 -0.000001   -0.00      0.22   
   107. D(O  18,O  11,C  10,C   9)   -115.50 -0.000009   -0.01   -115.52   
   108. D(O  18,O  11,C  10,C   4)     64.73 -0.000010   -0.02     64.72   
   109. D(C  12,O  11,C  10,C   9)   -177.28  0.000002   -0.03   -177.30   
   110. D(C  12,O  11,C  10,C   4)      2.96  0.000001   -0.03      2.93   
   111. D(O  13,C  12,O  11,O  18)     99.76  0.000015   -0.04     99.73   
   112. D(O  13,C  12,O  11,C  10)    177.46  0.000000    0.02    177.49   
   113. D(C   2,C  12,O  11,O  18)    -81.35  0.000019   -0.03    -81.39   
   114. D(C   2,C  12,O  11,C  10)     -3.66  0.000004    0.03     -3.63   
   115. D(O  18,C  12,C   2,C   3)    -82.64 -0.000004   -0.03    -82.66   
   116. D(O  18,C  12,C   2,C   1)     95.61  0.000004   -0.04     95.57   
   117. D(O  13,C  12,C   2,C   3)   -179.00 -0.000007    0.00   -179.00   
   118. D(O  13,C  12,C   2,C   1)     -0.75  0.000002   -0.01     -0.76   
   119. D(O  11,C  12,C   2,C   3)      2.20 -0.000010   -0.00      2.20   
   120. D(O  18,C  12,O  11,C  10)     77.70 -0.000015    0.06     77.76   
   121. D(O  11,C  12,C   2,C   1)   -179.56 -0.000002   -0.01   -179.57   
   122. D(O  18,O  13,C  12,O  11)    -93.43 -0.000005    0.00    -93.43   
   123. D(O  18,O  13,C  12,C   2)     87.79 -0.000008   -0.00     87.79   
   124. D(H  20,O  18,C  12,O  13)    -55.83  0.000013   -0.18    -56.01   
   125. D(H  20,O  18,C  12,O  11)     63.08  0.000003   -0.17     62.90   
   126. D(H  20,O  18,C  12,C   2)    179.72 -0.000021   -0.17    179.55   
   127. D(H  19,O  18,C  12,O  11)    172.32  0.000005   -0.16    172.16   
   128. D(H  19,O  18,C  12,C   2)    -71.04 -0.000019   -0.15    -71.19   
   129. D(O  13,O  18,O  11,C  12)    -29.66  0.000015   -0.01    -29.67   
   130. D(O  13,O  18,O  11,C  10)   -154.73 -0.000020    0.03   -154.70   
   131. D(C  12,O  18,O  11,C  10)   -125.07 -0.000035    0.04   -125.03   
   132. D(H  19,O  18,C  12,O  13)     53.41  0.000016   -0.16     53.24   
   133. D(H  20,O  18,O  11,C  12)   -115.81  0.000015   -0.20   -116.01   
   134. D(H  20,O  18,O  11,C  10)    119.12 -0.000020   -0.16    118.96   
   135. D(H  19,O  18,O  11,C  12)    -10.88  0.000008   -0.18    -11.06   
   136. D(O  11,O  18,C  12,C   2)    116.64 -0.000024    0.01    116.65   
   137. D(H  19,O  18,O  11,C  10)   -135.95 -0.000027   -0.14   -136.09   
   138. D(O  11,O  18,O  13,C  12)     36.44  0.000023   -0.01     36.43   
   139. D(H  20,O  18,O  13,C  12)    123.28  0.000007   -0.14    123.14   
   140. D(H  19,O  18,O  13,C  12)   -131.22  0.000021   -0.12   -131.34   
   141. D(O  13,O  18,C  12,O  11)    118.91 -0.000010    0.01    118.92   
   142. D(O  13,O  18,C  12,C   2)   -124.45 -0.000034    0.02   -124.43   
   143. D(O  11,O  18,C  12,O  13)   -118.91  0.000010   -0.01   -118.92   
    ----------------------------------------------------------------------------

Time needed for optimization step       :     1.97 sec
                 *******************************************************
                 *** FINAL ENERGY EVALUATION AT THE STATIONARY POINT ***
                 ***               (AFTER   80 CYCLES)               ***
                 *******************************************************
---------------------------------
CARTESIAN COORDINATES (ANGSTROEM)
---------------------------------
  N    -0.374463   -4.793252    0.419549
  C    -0.340764   -3.651275    0.522247
  C    -0.275913   -2.249907    0.624370
  C     0.366428   -1.495528   -0.321566
  C     0.446272   -0.100247   -0.172943
  C     1.117046    0.739069   -1.101810
  C     1.179289    2.077112   -0.919427
  C     0.560799    2.725318    0.238195
  O     0.615345    3.939850    0.407985
  C    -0.119178    1.843230    1.171572
  C    -0.168576    0.492601    0.968349
  O    -0.822352   -0.267081    1.879323
  C    -0.891793   -1.624768    1.810630
  O    -1.454969   -2.219599    2.688172
  H     0.825339   -1.970876   -1.177745
  H     1.579000    0.271742   -1.959796
  H     1.688450    2.722365   -1.618936
  H    -0.587640    2.282802    2.038253
  O     1.586466   -1.731448    2.747304
  H     1.849730   -2.633061    2.949260
  H     1.354711   -1.322623    3.585710

----------------------------
CARTESIAN COORDINATES (A.U.)
----------------------------
  NO LB    ZA    FRAG    MASS        X           Y           Z
   0 N   7.0000    0    14.007   -0.707633   -9.057934    0.792833
   1 C   6.0000    0    12.011   -0.643950   -6.899910    0.986904
   2 C   6.0000    0    12.011   -0.521400   -4.251709    1.179888
   3 C   6.0000    0    12.011    0.692448   -2.826139   -0.607672
   4 C   6.0000    0    12.011    0.843333   -0.189440   -0.326815
   5 C   6.0000    0    12.011    2.110912    1.396639   -2.082119
   6 C   6.0000    0    12.011    2.228532    3.925173   -1.737465
   7 C   6.0000    0    12.011    1.059757    5.150105    0.450123
   8 O   8.0000    0    15.999    1.162834    7.445237    0.770981
   9 C   6.0000    0    12.011   -0.225215    3.483199    2.213950
  10 C   6.0000    0    12.011   -0.318563    0.930881    1.829914
  11 O   8.0000    0    15.999   -1.554020   -0.504711    3.551406
  12 C   6.0000    0    12.011   -1.685244   -3.070366    3.421594
  13 O   8.0000    0    15.999   -2.749492   -4.194434    5.079909
  14 H   1.0000    0     1.008    1.559664   -3.724415   -2.225615
  15 H   1.0000    0     1.008    2.983878    0.513517   -3.703478
  16 H   1.0000    0     1.008    3.190708    5.144524   -3.059345
  17 H   1.0000    0     1.008   -1.110479    4.313871    3.851740
  18 O   8.0000    0    15.999    2.997987   -3.271963    5.191653
  19 H   1.0000    0     1.008    3.495482   -4.975765    5.573294
  20 H   1.0000    0     1.008    2.560032   -2.499396    6.776011

      -----------------------------------------------------------      
     |                   =====================                   |     
     |                           x T B                           |     
     |                   =====================                   |     
     |                         S. Grimme                         |     
     |          Mulliken Center for Theoretical Chemistry        |     
     |                    University of Bonn                     |     
      -----------------------------------------------------------      

   * xtb version 6.6.1 (8d0f1dd) compiled by 'stahn@M-Bot' on 2023-08-01

   xtb is free software: you can redistribute it and/or modify it under
   the terms of the GNU Lesser General Public License as published by
   the Free Software Foundation, either version 3 of the License, or
   (at your option) any later version.
   
   xtb is distributed in the hope that it will be useful,
   but WITHOUT ANY WARRANTY; without even the implied warranty of
   MERCHANTABILITY or FITNESS FOR A PARTICULAR PURPOSE.  See the
   GNU Lesser General Public License for more details.
   
   Cite this work as:
   * C. Bannwarth, E. Caldeweyher, S. Ehlert, A. Hansen, P. Pracht,
     J. Seibert, S. Spicher, S. Grimme, WIREs Comput. Mol. Sci., 2020, 11,
     e01493. DOI: 10.1002/wcms.1493
   
   for GFN2-xTB:
   * C. Bannwarth, S. Ehlert and S. Grimme., J. Chem. Theory Comput., 2019,
     15, 1652-1671. DOI: 10.1021/acs.jctc.8b01176
   for GFN1-xTB:
   * S. Grimme, C. Bannwarth, P. Shushkov, J. Chem. Theory Comput., 2017,
     13, 1989-2009. DOI: 10.1021/acs.jctc.7b00118
   for GFN0-xTB:
   * P. Pracht, E. Caldeweyher, S. Ehlert, S. Grimme, ChemRxiv, 2019, preprint.
     DOI: 10.26434/chemrxiv.8326202.v1
   for GFN-FF:
   * S. Spicher and S. Grimme, Angew. Chem. Int. Ed., 2020, 59, 15665-15673.
     DOI: 10.1002/anie.202004239
   
   for ALPB and GBSA implicit solvation:
   * S. Ehlert, M. Stahn, S. Spicher, S. Grimme, J. Chem. Theory Comput.,
     2021, 17, 4250-4261. DOI: 10.1021/acs.jctc.1c00471
   
   for DFT-D4:
   * E. Caldeweyher, C. Bannwarth and S. Grimme, J. Chem. Phys., 2017,
     147, 034112. DOI: 10.1063/1.4993215
   * E. Caldeweyher, S. Ehlert, A. Hansen, H. Neugebauer, S. Spicher,
     C. Bannwarth and S. Grimme, J. Chem. Phys., 2019, 150, 154122.
     DOI: 10.1063/1.5090222
   * E. Caldeweyher, J.-M. Mewes, S. Ehlert and S. Grimme, Phys. Chem. Chem. Phys.
     2020, 22, 8499-8512. DOI: 10.1039/D0CP00502A
   
   for sTDA-xTB:
   * S. Grimme and C. Bannwarth, J. Chem. Phys., 2016, 145, 054103.
     DOI: 10.1063/1.4959605
   
   in the mass-spec context:
   * V. Asgeirsson, C. Bauer and S. Grimme, Chem. Sci., 2017, 8, 4879.
     DOI: 10.1039/c7sc00601b
   * J. Koopman and S. Grimme, ACS Omega 2019, 4, 12, 15120-15133.
     DOI: 10.1021/acsomega.9b02011
   
   for metadynamics refer to:
   * S. Grimme, J. Chem. Theory Comput., 2019, 155, 2847-2862
     DOI: 10.1021/acs.jctc.9b00143
   
   for SPH calculations refer to:
   * S. Spicher and S. Grimme, J. Chem. Theory Comput., 2021, 17, 1701-1714
     DOI: 10.1021/acs.jctc.0c01306
   
   with help from (in alphabetical order)
   P. Atkinson, C. Bannwarth, F. Bohle, G. Brandenburg, E. Caldeweyher
   M. Checinski, S. Dohm, S. Ehlert, S. Ehrlich, I. Gerasimov, C. Hölzer
   A. Katbashev, J. Koopman, C. Lavigne, S. Lehtola, F. März, M. Müller,
   F. Musil, H. Neugebauer, J. Pisarek, C. Plett, P. Pracht, F. Pultar,
   J. Seibert, P. Shushkov, S. Spicher, M. Stahn, M. Steiner, T. Strunk,
   J. Stückrath, T. Rose, and J. Unsleber
   
 * started run on 2025/01/14 at 21:15:54.292     

           -------------------------------------------------
          |                Calculation Setup                |
           -------------------------------------------------

          program call               : /home/jang/cal_tmp/10_orca/orca_5_0_4_linux_x86-64_shared_openmpi411/otool_xtb /home/jang/cal_tmp/10_orca/Gen_chromophore/Gen_molecular_pairs_cal/mol_2_5.xyz/input_XTB.xyz --grad -c 0 -u 0 -P 4 --namespace /home/jang/cal_tmp/10_orca/Gen_chromophore/Gen_molecular_pairs_cal/mol_2_5.xyz/input --input /home/jang/cal_tmp/10_orca/Gen_chromophore/Gen_molecular_pairs_cal/mol_2_5.xyz/input_XTB.input.tmp --acc 1.000000
          hostname                   : node02
          calculation namespace      : /home/jang/cal_tmp/10_orca/Gen_chromophore/Gen_molecular_pairs_cal/mol_2_5.xyz/input
          coordinate file            : /home/jang/cal_tmp/10_orca/Gen_chromophore/Gen_molecular_pairs_cal/mol_2_5.xyz/input_XTB.xyz
          omp threads                :                     4

   ID    Z sym.   atoms
    1    7 N      1
    2    6 C      2-8, 10, 11, 13
    3    8 O      9, 12, 14, 19
    4    1 H      15-18, 20, 21

molecular fragmentation (1/2 indicates fragments):
111111111111111111222
# atoms in fragment 1/2:    18     3
 fragment masses (1/2) :      186.14       18.02
CMA distance (Bohr)    :   5.826
constraining FC (au)   :  0.0500

           -------------------------------------------------
          |                 G F N 2 - x T B                 |
           -------------------------------------------------

        Reference                      10.1021/acs.jctc.8b01176
      * Hamiltonian:
        H0-scaling (s, p, d)           1.850000    2.230000    2.230000
        zeta-weighting                 0.500000
      * Dispersion:
        s8                             2.700000
        a1                             0.520000
        a2                             5.000000
        s9                             5.000000
      * Repulsion:
        kExp                           1.500000    1.000000
        rExp                           1.000000
      * Coulomb:
        alpha                          2.000000
        third order                    shell-resolved
        anisotropic                    true
        a3                             3.000000
        a5                             4.000000
        cn-shift                       1.200000
        cn-exp                         4.000000
        max-rad                        5.000000

q/qsh data taken from xtbrestart
CAMM data taken from xtbrestart

          ...................................................
          :                      SETUP                      :
          :.................................................:
          :  # basis functions                  66          :
          :  # atomic orbitals                  66          :
          :  # shells                           36          :
          :  # electrons                        75          :
          :  max. iterations                   250          :
          :  Hamiltonian                  GFN2-xTB          :
          :  restarted?                       true          :
          :  GBSA solvation                  false          :
          :  PC potential                    false          :
          :  electronic temp.          300.0000000     K    :
          :  accuracy                    1.0000000          :
          :  -> integral cutoff          0.2500000E+02      :
          :  -> integral neglect         0.1000000E-07      :
          :  -> SCF convergence          0.1000000E-05 Eh   :
          :  -> wf. convergence          0.1000000E-03 e    :
          :  Broyden damping             0.4000000          :
          ...................................................

 iter      E             dE          RMSdq      gap      omega  full diag
   1    -44.1514933 -0.441515E+02  0.439E-03    2.23       0.0  T
   2    -44.1514933 -0.983140E-08  0.265E-03    2.23       8.2  T
   3    -44.1514933  0.530940E-07  0.145E-03    2.23      15.0  T
   4    -44.1514933 -0.562821E-07  0.444E-04    2.23      49.2  T
   5    -44.1514933 -0.424652E-08  0.128E-04    2.23     170.7  T

   *** convergence criteria satisfied after 5 iterations ***

         #    Occupation            Energy/Eh            Energy/eV
      -------------------------------------------------------------
         1        2.0000           -0.7825699             -21.2948
       ...           ...                  ...                  ...
        32        2.0000           -0.4738774             -12.8949
        33        2.0000           -0.4661136             -12.6836
        34        2.0000           -0.4551987             -12.3866
        35        2.0000           -0.4471744             -12.1682
        36        2.0000           -0.4404088             -11.9841
        37        1.9991           -0.4201196             -11.4320
        38        1.0009           -0.4067920             -11.0694 (HOMO)
        39                         -0.3247270              -8.8363 (LUMO)
        40                         -0.2767067              -7.5296
        41                         -0.2510352              -6.8310
        42                         -0.2358622              -6.4181
        43                         -0.2313717              -6.2959
       ...                                ...                  ...
        66                          1.1458710              31.1807
      -------------------------------------------------------------
                  HL-Gap            0.0820650 Eh            2.2331 eV
             Fermi-level           -0.3896077 Eh          -10.6018 eV

 SCC (total)                   0 d,  0 h,  0 min,  0.039 sec
 SCC setup                      ...        0 min,  0.000 sec (  1.152%)
 Dispersion                     ...        0 min,  0.000 sec (  1.224%)
 classical contributions        ...        0 min,  0.000 sec (  0.268%)
 integral evaluation            ...        0 min,  0.002 sec (  5.856%)
 iterations                     ...        0 min,  0.031 sec ( 79.075%)
 molecular gradient             ...        0 min,  0.004 sec ( 10.656%)
 printout                       ...        0 min,  0.001 sec (  1.495%)

         :::::::::::::::::::::::::::::::::::::::::::::::::::::
         ::                     SUMMARY                     ::
         :::::::::::::::::::::::::::::::::::::::::::::::::::::
         :: total energy             -43.554002397762 Eh    ::
         :: gradient norm              0.000483512192 Eh/a0 ::
         :: HOMO-LUMO gap              2.233102272601 eV    ::
         ::.................................................::
         :: SCC energy               -44.151493338230 Eh    ::
         :: -> isotropic ES            0.102993380132 Eh    ::
         :: -> anisotropic ES         -0.000564805212 Eh    ::
         :: -> anisotropic XC          0.021250352067 Eh    ::
         :: -> dispersion             -0.021559383623 Eh    ::
         :: repulsion energy           0.597392536478 Eh    ::
         :: add. restraining           0.000000000000 Eh    ::
         :: total charge               0.000000000000 e     ::
         :::::::::::::::::::::::::::::::::::::::::::::::::::::


Property printout bound to 'properties.out'

           -------------------------------------------------
          | TOTAL ENERGY              -43.554002397762 Eh   |
          | GRADIENT NORM               0.000483512192 Eh/α |
          | HOMO-LUMO GAP               2.233102272601 eV   |
           -------------------------------------------------

------------------------------------------------------------------------
 * finished run on 2025/01/14 at 21:15:55.224     
------------------------------------------------------------------------
 total:
 * wall-time:     0 d,  0 h,  0 min,  0.931 sec
 *  cpu-time:     0 d,  0 h,  0 min,  1.116 sec
 * ratio c/w:     1.199 speedup
 SCF:
 * wall-time:     0 d,  0 h,  0 min,  0.040 sec
 *  cpu-time:     0 d,  0 h,  0 min,  0.148 sec
 * ratio c/w:     3.749 speedup


-------------------------   --------------------
FINAL SINGLE POINT ENERGY       -43.554002397760
-------------------------   --------------------

                                *** OPTIMIZATION RUN DONE ***

Timings for individual modules:

Sum of individual times         ...      202.045 sec (=   3.367 min)
Geometry relaxation             ...       55.411 sec (=   0.924 min)  27.4 %
XTB module                      ...      146.634 sec (=   2.444 min)  72.6 %
                             ****ORCA TERMINATED NORMALLY****
TOTAL RUN TIME: 0 days 0 hours 12 minutes 32 seconds 206 msec
