
                                 *****************
                                 * O   R   C   A *
                                 *****************

                                            #,                                       
                                            ###                                      
                                            ####                                     
                                            #####                                    
                                            ######                                   
                                           ########,                                 
                                     ,,################,,,,,                         
                               ,,#################################,,                 
                          ,,##########################################,,             
                       ,#########################################, ''#####,          
                    ,#############################################,,   '####,        
                  ,##################################################,,,,####,       
                ,###########''''           ''''###############################       
              ,#####''   ,,,,##########,,,,          '''####'''          '####       
            ,##' ,,,,###########################,,,                        '##       
           ' ,,###''''                  '''############,,,                           
         ,,##''                                '''############,,,,        ,,,,,,###''
      ,#''                                            '''#######################'''  
     '                                                          ''''####''''         
             ,#######,   #######,   ,#######,      ##                                
            ,#'     '#,  ##    ##  ,#'     '#,    #''#        ######   ,####,        
            ##       ##  ##   ,#'  ##            #'  '#       #        #'  '#        
            ##       ##  #######   ##           ,######,      #####,   #    #        
            '#,     ,#'  ##    ##  '#,     ,#' ,#      #,         ##   #,  ,#        
             '#######'   ##     ##  '#######'  #'      '#     #####' # '####'        



                  #######################################################
                  #                        -***-                        #
                  #          Department of theory and spectroscopy      #
                  #    Directorship and core code : Frank Neese         #
                  #        Max Planck Institute fuer Kohlenforschung    #
                  #                Kaiser Wilhelm Platz 1               #
                  #                 D-45470 Muelheim/Ruhr               #
                  #                      Germany                        #
                  #                                                     #
                  #                  All rights reserved                #
                  #                        -***-                        #
                  #######################################################


                         Program Version 5.0.4 -  RELEASE  -


 With contributions from (in alphabetic order):
   Daniel Aravena         : Magnetic Suceptibility
   Michael Atanasov       : Ab Initio Ligand Field Theory (pilot matlab implementation)
   Alexander A. Auer      : GIAO ZORA, VPT2 properties, NMR spectrum
   Ute Becker             : Parallelization
   Giovanni Bistoni       : ED, misc. LED, open-shell LED, HFLD
   Martin Brehm           : Molecular dynamics
   Dmytro Bykov           : SCF Hessian
   Vijay G. Chilkuri      : MRCI spin determinant printing, contributions to CSF-ICE
   Dipayan Datta          : RHF DLPNO-CCSD density
   Achintya Kumar Dutta   : EOM-CC, STEOM-CC
   Dmitry Ganyushin       : Spin-Orbit,Spin-Spin,Magnetic field MRCI
   Miquel Garcia          : C-PCM and meta-GGA Hessian, CC/C-PCM, Gaussian charge scheme
   Yang Guo               : DLPNO-NEVPT2, F12-NEVPT2, CIM, IAO-localization
   Andreas Hansen         : Spin unrestricted coupled pair/coupled cluster methods
   Benjamin Helmich-Paris : MC-RPA, TRAH-SCF, COSX integrals
   Lee Huntington         : MR-EOM, pCC
   Robert Izsak           : Overlap fitted RIJCOSX, COSX-SCS-MP3, EOM
   Marcus Kettner         : VPT2
   Christian Kollmar      : KDIIS, OOCD, Brueckner-CCSD(T), CCSD density, CASPT2, CASPT2-K
   Simone Kossmann        : Meta GGA functionals, TD-DFT gradient, OOMP2, MP2 Hessian
   Martin Krupicka        : Initial AUTO-CI
   Lucas Lang             : DCDCAS
   Marvin Lechner         : AUTO-CI (C++ implementation), FIC-MRCC
   Dagmar Lenk            : GEPOL surface, SMD
   Dimitrios Liakos       : Extrapolation schemes; Compound Job, initial MDCI parallelization
   Dimitrios Manganas     : Further ROCIS development; embedding schemes
   Dimitrios Pantazis     : SARC Basis sets
   Anastasios Papadopoulos: AUTO-CI, single reference methods and gradients
   Taras Petrenko         : DFT Hessian,TD-DFT gradient, ASA, ECA, R-Raman, ABS, FL, XAS/XES, NRVS
   Peter Pinski           : DLPNO-MP2, DLPNO-MP2 Gradient
   Christoph Reimann      : Effective Core Potentials
   Marius Retegan         : Local ZFS, SOC
   Christoph Riplinger    : Optimizer, TS searches, QM/MM, DLPNO-CCSD(T), (RO)-DLPNO pert. Triples
   Tobias Risthaus        : Range-separated hybrids, TD-DFT gradient, RPA, STAB
   Michael Roemelt        : Original ROCIS implementation
   Masaaki Saitow         : Open-shell DLPNO-CCSD energy and density
   Barbara Sandhoefer     : DKH picture change effects
   Avijit Sen             : IP-ROCIS
   Kantharuban Sivalingam : CASSCF convergence, NEVPT2, FIC-MRCI
   Bernardo de Souza      : ESD, SOC TD-DFT
   Georgi Stoychev        : AutoAux, RI-MP2 NMR, DLPNO-MP2 response
   Willem Van den Heuvel  : Paramagnetic NMR
   Boris Wezisla          : Elementary symmetry handling
   Frank Wennmohs         : Technical directorship


 We gratefully acknowledge several colleagues who have allowed us to
 interface, adapt or use parts of their codes:
   Stefan Grimme, W. Hujo, H. Kruse, P. Pracht,  : VdW corrections, initial TS optimization,
                  C. Bannwarth, S. Ehlert          DFT functionals, gCP, sTDA/sTD-DF
   Ed Valeev, F. Pavosevic, A. Kumar             : LibInt (2-el integral package), F12 methods
   Garnet Chan, S. Sharma, J. Yang, R. Olivares  : DMRG
   Ulf Ekstrom                                   : XCFun DFT Library
   Mihaly Kallay                                 : mrcc  (arbitrary order and MRCC methods)
   Jiri Pittner, Ondrej Demel                    : Mk-CCSD
   Frank Weinhold                                : gennbo (NPA and NBO analysis)
   Christopher J. Cramer and Donald G. Truhlar   : smd solvation model
   Lars Goerigk                                  : TD-DFT with DH, B97 family of functionals
   V. Asgeirsson, H. Jonsson                     : NEB implementation
   FAccTs GmbH                                   : IRC, NEB, NEB-TS, DLPNO-Multilevel, CI-OPT
                                                   MM, QMMM, 2- and 3-layer-ONIOM, Crystal-QMMM,
                                                   LR-CPCM, SF, NACMEs, symmetry and pop. for TD-DFT,
                                                   nearIR, NL-DFT gradient (VV10), updates on ESD,
                                                   ML-optimized integration grids
   S Lehtola, MJT Oliveira, MAL Marques          : LibXC Library
   Liviu Ungur et al                             : ANISO software


 Your calculation uses the libint2 library for the computation of 2-el integrals
 For citations please refer to: http://libint.valeyev.net

 Your ORCA version has been built with support for libXC version: 5.1.0
 For citations please refer to: https://tddft.org/programs/libxc/

 This ORCA versions uses:
   CBLAS   interface :  Fast vector & matrix operations
   LAPACKE interface :  Fast linear algebra routines
   SCALAPACK package :  Parallel linear algebra routines
   Shared memory     :  Shared parallel matrices
   BLAS/LAPACK       :  OpenBLAS 0.3.15  USE64BITINT DYNAMIC_ARCH NO_AFFINITY SkylakeX SINGLE_THREADED
        Core in use  :  SkylakeX
   Copyright (c) 2011-2014, The OpenBLAS Project




***************************************
The coordinates will be read from file: mol.xyz
***************************************


Your calculation utilizes the atom-pairwise dispersion correction
with the Becke-Johnson damping scheme (D3BJ)
Cite in your paper:
S.Grimme, S.Ehrlich, L.Goerigk, J Comput Chem, (2011), 32, 1456–1465 
S.Grimme, J.Antony, S.Ehrlich and H.Krieg, J.Chem.Phys., 132, (2010), 154104 
   

Your calculation utilizes the semiempirical GFN2-xTB method
Please cite in your paper:
C. Bannwarth, Ehlert S., S. Grimme,  J. Chem. Theory Comput., 15, (2019), 1652.
   

================================================================================

----- Orbital basis set information -----
Your calculation utilizes the basis: def2-SVP
   F. Weigend and R. Ahlrichs, Phys. Chem. Chem. Phys. 7, 3297 (2005).

----- AuxJ basis set information -----
Your calculation utilizes the auxiliary basis: def2/J
   F. Weigend, Phys. Chem. Chem. Phys. 8, 1057 (2006).

================================================================================
                                        WARNINGS
                       Please study these warnings very carefully!
================================================================================


WARNING: Geometry Optimization
  ===> : Switching off AutoStart
         For restart on a previous wavefunction, please use MOREAD

WARNING: Found dipole moment calculation with XTB calculation
  ===> : Switching off dipole moment calculation


WARNING: TRAH-SCF for XTB is not implemented!
  ===> : Turning TRAH off!

================================================================================
                                       INPUT FILE
================================================================================
NAME = /home/jang/cal_tmp/10_orca/Gen_chromophore/Gen_molecular_pairs_cal/mol_2_6.xyz/input.inp
|  1> ! B3LYP D3BJ def2-SVP TightSCF XTB Opt PAL8
|  2> 
|  3> %geom
|  4>   MaxIter 3000
|  5> end
|  6> 
|  7> * xyzfile 0 1 mol.xyz
|  8> 
|  9> %pal nprocs 4 # any number (positive integer)
| 10> end
| 11> 
| 12>                          ****END OF INPUT****
================================================================================

                       *****************************
                       * Geometry Optimization Run *
                       *****************************

Geometry optimization settings:
Update method            Update   .... BFGS
Choice of coordinates    CoordSys .... Z-matrix Internals
Initial Hessian          InHess   .... Almoef's Model

Convergence Tolerances:
Energy Change            TolE     ....  5.0000e-06 Eh
Max. Gradient            TolMAXG  ....  3.0000e-04 Eh/bohr
RMS Gradient             TolRMSG  ....  1.0000e-04 Eh/bohr
Max. Displacement        TolMAXD  ....  4.0000e-03 bohr
RMS Displacement         TolRMSD  ....  2.0000e-03 bohr
Strict Convergence                ....  False
------------------------------------------------------------------------------
                        ORCA OPTIMIZATION COORDINATE SETUP
------------------------------------------------------------------------------

The optimization will be done in new redundant internal coordinates
Making redundant internal coordinates   ...  (new redundants) done
Evaluating the initial hessian          ...  (Almloef) done
Evaluating the coordinates              ...  done
Calculating the B-matrix                .... done
Calculating the G-matrix                .... done
Diagonalizing the G-matrix              .... done
The first mode is                       ....   72
The number of degrees of freedom        ....   57

    -----------------------------------------------------------------
                    Redundant Internal Coordinates


    -----------------------------------------------------------------
         Definition                    Initial Value    Approx d2E/dq
    -----------------------------------------------------------------
      1. B(C   1,N   0)                  1.1617         1.294464   
      2. B(C   2,C   1)                  1.4203         0.558906   
      3. B(C   3,C   2)                  1.3407         0.748977   
      4. B(C   4,C   3)                  1.4517         0.498162   
      5. B(C   5,C   4)                  1.3886         0.628017   
      6. B(C   6,C   5)                  1.4030         0.595707   
      7. B(C   7,C   6)                  1.4095         0.581595   
      8. B(O   8,C   7)                  1.2731         0.859781   
      9. B(C   9,C   7)                  1.4064         0.588194   
     10. B(C  10,C   9)                  1.3965         0.610165   
     11. B(C  10,C   4)                  1.3862         0.633503   
     12. B(O  11,C  10)                  1.4084         0.522996   
     13. B(C  12,C   2)                  1.4794         0.449829   
     14. B(C  12,O  11)                  1.3886         0.562544   
     15. B(O  13,C  12)                  1.2282         1.014053   
     16. B(H  14,C   3)                  1.0854         0.366227   
     17. B(H  15,C   5)                  1.0846         0.367344   
     18. B(H  16,C   6)                  1.0904         0.359540   
     19. B(H  17,C   9)                  1.0885         0.362113   
     20. B(O  18,H  14)                  4.8544         0.000000   
     21. B(O  18,C   3)                  5.2899         0.000000   
     22. B(O  18,C   1)                  5.3912         0.000000   
     23. B(H  19,H  14)                  4.3778         0.000000   
     24. B(H  19,C   3)                  4.9555         0.000000   
     25. B(H  19,C   2)                  5.2598         0.000000   
     26. B(H  19,C   1)                  4.9285         0.000000   
     27. B(H  19,N   0)                  4.9126         0.000000   
     28. B(H  19,O  18)                  0.9690         0.503047   
     29. B(H  20,O  18)                  0.9690         0.503047   
     30. A(N   0,C   1,O  18)           88.2080         0.103066   
     31. A(C   2,C   1,O  18)           90.1248         0.100727   
     32. A(C   3,C   2,C  12)          121.5410         0.423919   
     33. A(C   1,C   2,C   3)          120.2626         0.440789   
     34. A(C   1,C   2,C  12)          118.1964         0.402448   
     35. A(C   2,C   3,O  18)           95.3987         0.102631   
     36. A(C   4,C   3,H  14)          117.9411         0.341119   
     37. A(H  14,C   3,O  18)           60.8329         0.099027   
     38. A(C   2,C   3,H  14)          122.0778         0.365496   
     39. A(C   4,C   3,O  18)          113.5852         0.101429   
     40. A(C   2,C   3,C   4)          119.9811         0.431746   
     41. A(C   3,C   4,C   5)          122.3290         0.418350   
     42. A(C   5,C   4,C  10)          118.4668         0.436763   
     43. A(C   3,C   4,C  10)          119.2042         0.418999   
     44. A(C   6,C   5,H  15)          118.6348         0.351714   
     45. A(C   4,C   5,H  15)          121.7345         0.354873   
     46. A(C   4,C   5,C   6)          119.6307         0.431954   
     47. A(C   7,C   6,H  16)          117.8867         0.349025   
     48. A(C   5,C   6,H  16)          118.6857         0.350440   
     49. A(C   5,C   6,C   7)          123.4275         0.426045   
     50. A(C   6,C   7,C   9)          114.9713         0.425078   
     51. A(C   6,C   7,O   8)          122.3942         0.452218   
     52. A(O   8,C   7,C   9)          122.6345         0.453147   
     53. A(C  10,C   9,H  17)          119.4361         0.352287   
     54. A(C   7,C   9,H  17)          118.5678         0.350111   
     55. A(C   7,C   9,C  10)          121.9961         0.428746   
     56. A(C   9,C  10,O  11)          117.7033         0.417108   
     57. A(C   4,C  10,O  11)          120.7891         0.419908   
     58. A(C   4,C  10,C   9)          121.5076         0.434500   
     59. A(C  10,O  11,C  12)          121.3283         0.408478   
     60. A(O  11,C  12,O  13)          121.2293         0.460131   
     61. A(C   2,C  12,O  13)          121.6144         0.444743   
     62. A(C   2,C  12,O  11)          117.1563         0.400326   
     63. A(H  19,O  18,H  20)          103.9780         0.318375   
     64. A(C   1,O  18,C   3)           25.8879         0.089454   
     65. A(C   3,O  18,H  20)          130.2929         0.099648   
     66. A(C   3,O  18,H  19)           64.7985         0.099648   
     67. A(C   1,O  18,H  20)          105.8032         0.098789   
     68. A(C   1,O  18,H  19)           56.8501         0.098789   
     69. D(C   3,C   2,C   1,O  18)    -56.6474         0.024939   
     70. D(C  12,C   2,C   1,O  18)    123.3526         0.024939   
     71. D(O  18,C   3,C   2,C  12)   -121.2318         0.050004   
     72. D(O  18,C   3,C   2,C   1)     58.7682         0.050004   
     73. D(C   4,C   3,C   2,C   1)   -180.0000         0.050004   
     74. D(H  14,C   3,C   2,C  12)   -180.0000         0.050004   
     75. D(C   4,C   3,C   2,C  12)     -0.0000         0.050004   
     76. D(H  14,C   3,C   2,C   1)      0.0000         0.050004   
     77. D(C  10,C   4,C   3,O  18)    111.7396         0.019647   
     78. D(C  10,C   4,C   3,C   2)      0.0000         0.019647   
     79. D(C   5,C   4,C   3,O  18)    -68.2604         0.019647   
     80. D(C   5,C   4,C   3,H  14)     -0.0000         0.019647   
     81. D(C   5,C   4,C   3,C   2)   -180.0000         0.019647   
     82. D(C  10,C   4,C   3,H  14)   -180.0000         0.019647   
     83. D(C   6,C   5,C   4,C   3)   -180.0000         0.027335   
     84. D(H  15,C   5,C   4,C  10)   -180.0000         0.027335   
     85. D(H  15,C   5,C   4,C   3)      0.0000         0.027335   
     86. D(C   6,C   5,C   4,C  10)      0.0000         0.027335   
     87. D(H  16,C   6,C   5,H  15)     -0.0001         0.024445   
     88. D(H  16,C   6,C   5,C   4)    179.9999         0.024445   
     89. D(C   7,C   6,C   5,H  15)    180.0000         0.024445   
     90. D(C   7,C   6,C   5,C   4)     -0.0000         0.024445   
     91. D(C   9,C   7,C   6,H  16)   -179.9999         0.023245   
     92. D(C   9,C   7,C   6,C   5)      0.0000         0.023245   
     93. D(O   8,C   7,C   6,H  16)      0.0000         0.023245   
     94. D(O   8,C   7,C   6,C   5)   -180.0000         0.023245   
     95. D(C  10,C   9,C   7,O   8)   -180.0000         0.023802   
     96. D(C  10,C   9,C   7,C   6)     -0.0000         0.023802   
     97. D(H  17,C   9,C   7,C   6)    180.0000         0.023802   
     98. D(H  17,C   9,C   7,O   8)      0.0000         0.023802   
     99. D(C   9,C  10,C   4,C   3)    180.0000         0.027846   
    100. D(O  11,C  10,C   9,H  17)     -0.0000         0.025714   
    101. D(O  11,C  10,C   9,C   7)    180.0000         0.025714   
    102. D(C   4,C  10,C   9,H  17)    180.0000         0.025714   
    103. D(C   4,C  10,C   9,C   7)     -0.0000         0.025714   
    104. D(O  11,C  10,C   4,C   5)   -180.0000         0.027846   
    105. D(O  11,C  10,C   4,C   3)     -0.0000         0.027846   
    106. D(C   9,C  10,C   4,C   5)      0.0000         0.027846   
    107. D(C  12,O  11,C  10,C   9)    179.9999         0.019703   
    108. D(C  12,O  11,C  10,C   4)     -0.0001         0.019703   
    109. D(O  13,C  12,O  11,C  10)   -179.9999         0.022938   
    110. D(C   2,C  12,O  11,C  10)      0.0001         0.022938   
    111. D(O  13,C  12,C   2,C   3)    179.9999         0.014922   
    112. D(O  13,C  12,C   2,C   1)     -0.0001         0.014922   
    113. D(O  11,C  12,C   2,C   3)     -0.0001         0.014922   
    114. D(O  11,C  12,C   2,C   1)    179.9999         0.014922   
    115. D(C   1,O  18,C   3,H  14)     97.4630         0.001500   
    116. D(C   1,O  18,C   3,C   4)   -152.5476         0.001500   
    117. D(H  20,O  18,C   3,H  14)    119.1437         0.001500   
    118. D(H  20,O  18,C   3,C   4)   -130.8669         0.001500   
    119. D(H  20,O  18,C   3,C   2)     -4.7844         0.001500   
    120. D(H  19,O  18,C   3,H  14)     31.9522         0.001500   
    121. D(H  19,O  18,C   3,C   4)    141.9416         0.001500   
    122. D(H  19,O  18,C   3,C   2)    -91.9758         0.001500   
    123. D(C   3,O  18,C   1,C   2)     24.7579         0.001500   
    124. D(C   3,O  18,C   1,N   0)   -152.7072         0.001500   
    125. D(H  20,O  18,C   1,C   2)   -138.2133         0.001500   
    126. D(C   1,O  18,C   3,C   2)    -26.4650         0.001500   
    127. D(H  20,O  18,C   1,N   0)     44.3216         0.001500   
    128. D(H  19,O  18,C   1,C   2)    125.1842         0.001500   
    129. D(H  19,O  18,C   1,N   0)    -52.2809         0.001500   
    -----------------------------------------------------------------

Number of atoms                         .... 21
Number of degrees of freedom            .... 129

         *************************************************************
         *                GEOMETRY OPTIMIZATION CYCLE   1            *
         *************************************************************
---------------------------------
CARTESIAN COORDINATES (ANGSTROEM)
---------------------------------
  N    -0.934059   -4.689148   -0.300813
  C    -0.789539   -3.564798   -0.046780
  C    -0.581237   -2.180989    0.196196
  C     0.000284   -1.411545   -0.735008
  C     0.210207    0.002077   -0.480230
  C     0.807281    0.843489   -1.409606
  C     0.982376    2.201535   -1.103995
  C     0.580879    2.780768    0.116658
  O     0.749466    4.016257    0.373410
  C    -0.018621    1.891869    1.026883
  C    -0.196975    0.538762    0.731304
  O    -0.807834   -0.270072    1.709193
  C    -1.021947   -1.625128    1.494475
  O    -1.554810   -2.328768    2.348498
  H     0.326918   -1.810149   -1.690275
  H     1.145731    0.479864   -2.373731
  H     1.452993    2.848351   -1.845057
  H    -0.351113    2.277625    1.988879
  O    -3.596558   -2.373677   -4.492721
  H    -2.830877   -2.967557   -4.492721
  H    -4.357801   -2.973234   -4.492721

----------------------------
CARTESIAN COORDINATES (A.U.)
----------------------------
  NO LB    ZA    FRAG    MASS        X           Y           Z
   0 N   7.0000    0    14.007   -1.765116   -8.861205   -0.568454
   1 C   6.0000    0    12.011   -1.492013   -6.736492   -0.088402
   2 C   6.0000    0    12.011   -1.098378   -4.121471    0.370756
   3 C   6.0000    0    12.011    0.000537   -2.667433   -1.388963
   4 C   6.0000    0    12.011    0.397233    0.003924   -0.907503
   5 C   6.0000    0    12.011    1.525540    1.593963   -2.663769
   6 C   6.0000    0    12.011    1.856422    4.160299   -2.086247
   7 C   6.0000    0    12.011    1.097703    5.254891    0.220451
   8 O   8.0000    0    15.999    1.416285    7.589625    0.705642
   9 C   6.0000    0    12.011   -0.035189    3.575114    1.940528
  10 C   6.0000    0    12.011   -0.372228    1.018113    1.381964
  11 O   8.0000    0    15.999   -1.526585   -0.510361    3.229906
  12 C   6.0000    0    12.011   -1.931200   -3.071047    2.824148
  13 O   8.0000    0    15.999   -2.938165   -4.400735    4.438018
  14 H   1.0000    0     1.008    0.617786   -3.420685   -3.194156
  15 H   1.0000    0     1.008    2.165118    0.906811   -4.485702
  16 H   1.0000    0     1.008    2.745758    5.382603   -3.486651
  17 H   1.0000    0     1.008   -0.663507    4.304088    3.758436
  18 O   8.0000    0    15.999   -6.796509   -4.485600   -8.490012
  19 H   1.0000    0     1.008   -5.349582   -5.607870   -8.490012
  20 H   1.0000    0     1.008   -8.235051   -5.618599   -8.490012

      -----------------------------------------------------------      
     |                   =====================                   |     
     |                           x T B                           |     
     |                   =====================                   |     
     |                         S. Grimme                         |     
     |          Mulliken Center for Theoretical Chemistry        |     
     |                    University of Bonn                     |     
      -----------------------------------------------------------      

   * xtb version 6.6.1 (8d0f1dd) compiled by 'stahn@M-Bot' on 2023-08-01

   xtb is free software: you can redistribute it and/or modify it under
   the terms of the GNU Lesser General Public License as published by
   the Free Software Foundation, either version 3 of the License, or
   (at your option) any later version.
   
   xtb is distributed in the hope that it will be useful,
   but WITHOUT ANY WARRANTY; without even the implied warranty of
   MERCHANTABILITY or FITNESS FOR A PARTICULAR PURPOSE.  See the
   GNU Lesser General Public License for more details.
   
   Cite this work as:
   * C. Bannwarth, E. Caldeweyher, S. Ehlert, A. Hansen, P. Pracht,
     J. Seibert, S. Spicher, S. Grimme, WIREs Comput. Mol. Sci., 2020, 11,
     e01493. DOI: 10.1002/wcms.1493
   
   for GFN2-xTB:
   * C. Bannwarth, S. Ehlert and S. Grimme., J. Chem. Theory Comput., 2019,
     15, 1652-1671. DOI: 10.1021/acs.jctc.8b01176
   for GFN1-xTB:
   * S. Grimme, C. Bannwarth, P. Shushkov, J. Chem. Theory Comput., 2017,
     13, 1989-2009. DOI: 10.1021/acs.jctc.7b00118
   for GFN0-xTB:
   * P. Pracht, E. Caldeweyher, S. Ehlert, S. Grimme, ChemRxiv, 2019, preprint.
     DOI: 10.26434/chemrxiv.8326202.v1
   for GFN-FF:
   * S. Spicher and S. Grimme, Angew. Chem. Int. Ed., 2020, 59, 15665-15673.
     DOI: 10.1002/anie.202004239
   
   for ALPB and GBSA implicit solvation:
   * S. Ehlert, M. Stahn, S. Spicher, S. Grimme, J. Chem. Theory Comput.,
     2021, 17, 4250-4261. DOI: 10.1021/acs.jctc.1c00471
   
   for DFT-D4:
   * E. Caldeweyher, C. Bannwarth and S. Grimme, J. Chem. Phys., 2017,
     147, 034112. DOI: 10.1063/1.4993215
   * E. Caldeweyher, S. Ehlert, A. Hansen, H. Neugebauer, S. Spicher,
     C. Bannwarth and S. Grimme, J. Chem. Phys., 2019, 150, 154122.
     DOI: 10.1063/1.5090222
   * E. Caldeweyher, J.-M. Mewes, S. Ehlert and S. Grimme, Phys. Chem. Chem. Phys.
     2020, 22, 8499-8512. DOI: 10.1039/D0CP00502A
   
   for sTDA-xTB:
   * S. Grimme and C. Bannwarth, J. Chem. Phys., 2016, 145, 054103.
     DOI: 10.1063/1.4959605
   
   in the mass-spec context:
   * V. Asgeirsson, C. Bauer and S. Grimme, Chem. Sci., 2017, 8, 4879.
     DOI: 10.1039/c7sc00601b
   * J. Koopman and S. Grimme, ACS Omega 2019, 4, 12, 15120-15133.
     DOI: 10.1021/acsomega.9b02011
   
   for metadynamics refer to:
   * S. Grimme, J. Chem. Theory Comput., 2019, 155, 2847-2862
     DOI: 10.1021/acs.jctc.9b00143
   
   for SPH calculations refer to:
   * S. Spicher and S. Grimme, J. Chem. Theory Comput., 2021, 17, 1701-1714
     DOI: 10.1021/acs.jctc.0c01306
   
   with help from (in alphabetical order)
   P. Atkinson, C. Bannwarth, F. Bohle, G. Brandenburg, E. Caldeweyher
   M. Checinski, S. Dohm, S. Ehlert, S. Ehrlich, I. Gerasimov, C. Hölzer
   A. Katbashev, J. Koopman, C. Lavigne, S. Lehtola, F. März, M. Müller,
   F. Musil, H. Neugebauer, J. Pisarek, C. Plett, P. Pracht, F. Pultar,
   J. Seibert, P. Shushkov, S. Spicher, M. Stahn, M. Steiner, T. Strunk,
   J. Stückrath, T. Rose, and J. Unsleber
   
 * started run on 2025/01/14 at 21:06:36.787     

           -------------------------------------------------
          |                Calculation Setup                |
           -------------------------------------------------

          program call               : /home/jang/cal_tmp/10_orca/orca_5_0_4_linux_x86-64_shared_openmpi411/otool_xtb /home/jang/cal_tmp/10_orca/Gen_chromophore/Gen_molecular_pairs_cal/mol_2_6.xyz/input_XTB.xyz --grad -c 0 -u 0 -P 4 --namespace /home/jang/cal_tmp/10_orca/Gen_chromophore/Gen_molecular_pairs_cal/mol_2_6.xyz/input --input /home/jang/cal_tmp/10_orca/Gen_chromophore/Gen_molecular_pairs_cal/mol_2_6.xyz/input_XTB.input.tmp --acc 1.000000
          hostname                   : node02
          calculation namespace      : /home/jang/cal_tmp/10_orca/Gen_chromophore/Gen_molecular_pairs_cal/mol_2_6.xyz/input
          coordinate file            : /home/jang/cal_tmp/10_orca/Gen_chromophore/Gen_molecular_pairs_cal/mol_2_6.xyz/input_XTB.xyz
          omp threads                :                     4

   ID    Z sym.   atoms
    1    7 N      1
    2    6 C      2-8, 10, 11, 13
    3    8 O      9, 12, 14, 19
    4    1 H      15-18, 20, 21

molecular fragmentation (1/2 indicates fragments):
111111111111111111222
# atoms in fragment 1/2:    18     3
 fragment masses (1/2) :      186.14       18.02
CMA distance (Bohr)    :  11.888
constraining FC (au)   :  0.0500

           -------------------------------------------------
          |                 G F N 2 - x T B                 |
           -------------------------------------------------

        Reference                      10.1021/acs.jctc.8b01176
      * Hamiltonian:
        H0-scaling (s, p, d)           1.850000    2.230000    2.230000
        zeta-weighting                 0.500000
      * Dispersion:
        s8                             2.700000
        a1                             0.520000
        a2                             5.000000
        s9                             5.000000
      * Repulsion:
        kExp                           1.500000    1.000000
        rExp                           1.000000
      * Coulomb:
        alpha                          2.000000
        third order                    shell-resolved
        anisotropic                    true
        a3                             3.000000
        a5                             4.000000
        cn-shift                       1.200000
        cn-exp                         4.000000
        max-rad                        5.000000


          ...................................................
          :                      SETUP                      :
          :.................................................:
          :  # basis functions                  66          :
          :  # atomic orbitals                  66          :
          :  # shells                           36          :
          :  # electrons                        75          :
          :  max. iterations                   250          :
          :  Hamiltonian                  GFN2-xTB          :
          :  restarted?                      false          :
          :  GBSA solvation                  false          :
          :  PC potential                    false          :
          :  electronic temp.          300.0000000     K    :
          :  accuracy                    1.0000000          :
          :  -> integral cutoff          0.2500000E+02      :
          :  -> integral neglect         0.1000000E-07      :
          :  -> SCF convergence          0.1000000E-05 Eh   :
          :  -> wf. convergence          0.1000000E-03 e    :
          :  Broyden damping             0.4000000          :
          ...................................................

 iter      E             dE          RMSdq      gap      omega  full diag
   1    -43.9742602 -0.439743E+02  0.629E+00    2.72       0.0  T
   2    -43.9363976  0.378626E-01  0.380E+00    1.60       1.0  T
   3    -43.9240443  0.123533E-01  0.330E+00    2.80       1.0  T
   4    -44.0647497 -0.140705E+00  0.153E+00    2.06       1.0  T
   5    -44.0937252 -0.289755E-01  0.743E-01    2.34       1.0  T
   6    -44.0955954 -0.187026E-02  0.588E-01    2.23       1.0  T
   7    -44.0961128 -0.517377E-03  0.309E-01    2.24       1.0  T
   8    -44.0968517 -0.738871E-03  0.782E-02    2.21       1.0  T
   9    -44.0969570 -0.105299E-03  0.327E-02    2.22       1.0  T
  10    -44.0969657 -0.866905E-05  0.158E-02    2.22       1.4  T
  11    -44.0969691 -0.346807E-05  0.400E-03    2.22       5.4  T
  12    -44.0969692 -0.395604E-07  0.230E-03    2.22       9.5  T
  13    -44.0969692 -0.260567E-07  0.111E-03    2.22      19.7  T
  14    -44.0969692 -0.399982E-08  0.446E-04    2.22      48.9  T
  15    -44.0969692 -0.247040E-08  0.194E-04    2.22     112.3  T

   *** convergence criteria satisfied after 15 iterations ***

         #    Occupation            Energy/Eh            Energy/eV
      -------------------------------------------------------------
         1        2.0000           -0.7833884             -21.3171
       ...           ...                  ...                  ...
        32        2.0000           -0.4764260             -12.9642
        33        2.0000           -0.4646591             -12.6440
        34        2.0000           -0.4564271             -12.4200
        35        2.0000           -0.4561844             -12.4134
        36        2.0000           -0.4504649             -12.2578
        37        1.9938           -0.4310753             -11.7302
        38        1.0062           -0.4214373             -11.4679 (HOMO)
        39                         -0.3398550              -9.2479 (LUMO)
        40                         -0.2954495              -8.0396
        41                         -0.2723745              -7.4117
        42                         -0.2521269              -6.8607
        43                         -0.2436223              -6.6293
       ...                                ...                  ...
        66                          1.0529827              28.6531
      -------------------------------------------------------------
                  HL-Gap            0.0815823 Eh            2.2200 eV
             Fermi-level           -0.4034512 Eh          -10.9785 eV

 SCC (total)                   0 d,  0 h,  0 min,  0.046 sec
 SCC setup                      ...        0 min,  0.000 sec (  1.011%)
 Dispersion                     ...        0 min,  0.001 sec (  2.154%)
 classical contributions        ...        0 min,  0.000 sec (  0.217%)
 integral evaluation            ...        0 min,  0.002 sec (  5.258%)
 iterations                     ...        0 min,  0.038 sec ( 82.887%)
 molecular gradient             ...        0 min,  0.004 sec (  7.690%)
 printout                       ...        0 min,  0.000 sec (  0.628%)

         :::::::::::::::::::::::::::::::::::::::::::::::::::::
         ::                     SUMMARY                     ::
         :::::::::::::::::::::::::::::::::::::::::::::::::::::
         :: total energy             -43.530215879284 Eh    ::
         :: gradient norm              0.152918364359 Eh/a0 ::
         :: HOMO-LUMO gap              2.219967431864 eV    ::
         ::.................................................::
         :: SCC energy               -44.096969193605 Eh    ::
         :: -> isotropic ES            0.105124477328 Eh    ::
         :: -> anisotropic ES          0.001644806524 Eh    ::
         :: -> anisotropic XC          0.022633288448 Eh    ::
         :: -> dispersion             -0.018784924135 Eh    ::
         :: repulsion energy           0.566727000659 Eh    ::
         :: add. restraining           0.000000000000 Eh    ::
         :: total charge               0.000000000009 e     ::
         :::::::::::::::::::::::::::::::::::::::::::::::::::::


Property printout bound to 'properties.out'

           -------------------------------------------------
          | TOTAL ENERGY              -43.530215879284 Eh   |
          | GRADIENT NORM               0.152918364359 Eh/α |
          | HOMO-LUMO GAP               2.219967431864 eV   |
           -------------------------------------------------

------------------------------------------------------------------------
 * finished run on 2025/01/14 at 21:06:38.292     
------------------------------------------------------------------------
 total:
 * wall-time:     0 d,  0 h,  0 min,  1.503 sec
 *  cpu-time:     0 d,  0 h,  0 min,  1.331 sec
 * ratio c/w:     0.886 speedup
 SCF:
 * wall-time:     0 d,  0 h,  0 min,  0.046 sec
 *  cpu-time:     0 d,  0 h,  0 min,  0.167 sec
 * ratio c/w:     3.601 speedup


-------------------------   --------------------
FINAL SINGLE POINT ENERGY       -43.530215879280
-------------------------   --------------------

------------------------------------------------------------------------------
                         ORCA GEOMETRY RELAXATION STEP
------------------------------------------------------------------------------

Reading the OPT-File                    .... done
Getting information on internals        .... done
Copying old internal coords+grads       .... done
Making the new internal coordinates     .... (new redundants).... done
Validating the new internal coordinates .... (new redundants).... done
Calculating the B-matrix                .... done
Calculating the G,G- and P matrices     .... done
Transforming gradient to internals      .... done
Projecting the internal gradient        .... done
Number of atoms                         ....  21
Number of internal coordinates          .... 129
Current Energy                          ....   -43.530215879 Eh
Current gradient norm                   ....     0.152918364 Eh/bohr
Maximum allowed component of the step   ....  0.300
Current trust radius                    ....  0.300
Evaluating the initial hessian          ....  (Almloef) done
Projecting the Hessian                  .... done
Forming the augmented Hessian           .... done
Diagonalizing the augmented Hessian     .... done
Last element of RFO vector              ....  0.985075459
Lowest eigenvalues of augmented Hessian:
 -0.017968991  0.000051041  0.001460261  0.002308052  0.005775661
Length of the computed step             ....  0.174730817
The final length of the internal step   ....  0.174730817
Converting the step to cartesian space:
 Initial RMS(Int)=    0.0153841906
Transforming coordinates:
 Iter   0:  RMS(Cart)=    0.0345379758 RMS(Int)=    1.7492107687
 Iter   1:  RMS(Cart)=    0.0003118669 RMS(Int)=    0.0001625228
 Iter   2:  RMS(Cart)=    0.0000055195 RMS(Int)=    0.0000035323
 Iter   3:  RMS(Cart)=    0.0000001432 RMS(Int)=    0.0000000675
 Iter   4:  RMS(Cart)=    0.0000000041 RMS(Int)=    0.0000000028
done
Storing new coordinates                 .... done

                                .--------------------.
          ----------------------|Geometry convergence|-------------------------
          Item                value                   Tolerance       Converged
          ---------------------------------------------------------------------
          RMS gradient        0.0098135538            0.0001000000      NO
          MAX gradient        0.0451672923            0.0003000000      NO
          RMS step            0.0153841906            0.0020000000      NO
          MAX step            0.0564701356            0.0040000000      NO
          ........................................................
          Max(Bonds)      0.0299      Max(Angles)    1.36
          Max(Dihed)        1.47      Max(Improp)    0.00
          ---------------------------------------------------------------------

The optimization has not yet converged - more geometry cycles are needed


    ---------------------------------------------------------------------------
                         Redundant Internal Coordinates
                            (Angstroem and degrees)

        Definition                    Value    dE/dq     Step     New-Value
    ----------------------------------------------------------------------------
     1. B(C   1,N   0)                1.1617  0.039127 -0.0158    1.1459   
     2. B(C   2,C   1)                1.4203  0.005748 -0.0062    1.4142   
     3. B(C   3,C   2)                1.3407 -0.015180  0.0130    1.3536   
     4. B(C   4,C   3)                1.4517  0.021988 -0.0210    1.4307   
     5. B(C   5,C   4)                1.3886 -0.018493  0.0151    1.4037   
     6. B(C   6,C   5)                1.4030  0.034465 -0.0299    1.3731   
     7. B(C   7,C   6)                1.4095 -0.028696  0.0252    1.4347   
     8. B(O   8,C   7)                1.2731  0.036759 -0.0222    1.2509   
     9. B(C   9,C   7)                1.4064 -0.027140  0.0237    1.4301   
    10. B(C  10,C   9)                1.3965  0.025848 -0.0216    1.3748   
    11. B(C  10,C   4)                1.3862 -0.023293  0.0191    1.4053   
    12. B(O  11,C  10)                1.4084  0.028351 -0.0292    1.3792   
    13. B(C  12,C   2)                1.4794  0.001819 -0.0020    1.4774   
    14. B(C  12,O  11)                1.3886  0.025156 -0.0243    1.3642   
    15. B(O  13,C  12)                1.2282  0.045167 -0.0232    1.2050   
    16. B(H  14,C   3)                1.0854  0.002661 -0.0039    1.0815   
    17. B(H  15,C   5)                1.0846  0.004336 -0.0060    1.0786   
    18. B(H  16,C   6)                1.0904  0.005794 -0.0081    1.0823   
    19. B(H  17,C   9)                1.0885  0.004998 -0.0070    1.0815   
    20. B(O  18,H  14)                4.8544  0.000265 -0.0033    4.8510   
    21. B(O  18,C   3)                5.2899  0.000893 -0.0056    5.2843   
    22. B(O  18,C   1)                5.3912  0.000197 -0.0028    5.3884   
    23. B(H  19,H  14)                4.3778 -0.000528  0.0003    4.3781   
    24. B(H  19,C   3)                4.9555  0.001511 -0.0034    4.9521   
    25. B(H  19,C   2)                5.2598 -0.000598 -0.0021    5.2577   
    26. B(H  19,C   1)                4.9285 -0.001770  0.0030    4.9315   
    27. B(H  19,N   0)                4.9126  0.000234  0.0015    4.9141   
    28. B(H  19,O  18)                0.9690  0.006521 -0.0072    0.9618   
    29. B(H  20,O  18)                0.9690  0.007206 -0.0073    0.9617   
    30. A(N   0,C   1,O  18)           88.21 -0.000334   -0.13     88.07   
    31. A(C   2,C   1,O  18)           90.12 -0.000964   -0.03     90.10   
    32. A(C   3,C   2,C  12)          121.54  0.001422   -0.01    121.53   
    33. A(C   1,C   2,C   3)          120.26  0.000088    0.29    120.55   
    34. A(C   1,C   2,C  12)          118.20 -0.001509   -0.28    117.92   
    35. A(C   2,C   3,O  18)           95.40  0.001381   -0.17     95.23   
    36. A(C   4,C   3,H  14)          117.94 -0.002486    0.34    118.29   
    37. A(H  14,C   3,O  18)           60.83  0.000107    0.05     60.89   
    38. A(C   2,C   3,H  14)          122.08  0.000909    0.07    122.15   
    39. A(C   4,C   3,O  18)          113.59 -0.002071    0.24    113.82   
    40. A(C   2,C   3,C   4)          119.98  0.001577   -0.41    119.57   
    41. A(C   3,C   4,C   5)          122.33 -0.002878    0.14    122.47   
    42. A(C   5,C   4,C  10)          118.47 -0.005726    0.61    119.07   
    43. A(C   3,C   4,C  10)          119.20  0.008605   -0.75    118.46   
    44. A(C   6,C   5,H  15)          118.63 -0.001604    0.25    118.89   
    45. A(C   4,C   5,H  15)          121.73  0.003715   -0.57    121.17   
    46. A(C   4,C   5,C   6)          119.63 -0.002111    0.32    119.95   
    47. A(C   7,C   6,H  16)          117.89 -0.003087    0.41    118.30   
    48. A(C   5,C   6,H  16)          118.69 -0.004018    0.55    119.24   
    49. A(C   5,C   6,C   7)          123.43  0.007105   -0.97    122.46   
    50. A(C   6,C   7,C   9)          114.97 -0.008808    1.14    116.12   
    51. A(C   6,C   7,O   8)          122.39  0.004002   -0.52    121.87   
    52. A(O   8,C   7,C   9)          122.63  0.004806   -0.62    122.01   
    53. A(C  10,C   9,H  17)          119.44 -0.002223    0.23    119.67   
    54. A(C   7,C   9,H  17)          118.57 -0.005438    0.73    119.30   
    55. A(C   7,C   9,C  10)          122.00  0.007662   -0.96    121.04   
    56. A(C   9,C  10,O  11)          117.70  0.003766   -0.55    117.15   
    57. A(C   4,C  10,O  11)          120.79 -0.005645    0.70    121.48   
    58. A(C   4,C  10,C   9)          121.51  0.001879   -0.14    121.37   
    59. A(C  10,O  11,C  12)          121.33 -0.005738    0.47    121.80   
    60. A(O  11,C  12,O  13)          121.23  0.011204   -1.36    119.87   
    61. A(C   2,C  12,O  13)          121.61 -0.010983    1.35    122.96   
    62. A(C   2,C  12,O  11)          117.16 -0.000220    0.01    117.17   
    63. A(H  19,O  18,H  20)          103.98 -0.001833    0.85    104.83   
    64. A(C   1,O  18,C   3)           25.89 -0.000825    0.12     26.01   
    65. A(C   3,O  18,H  20)          130.29 -0.001525    0.23    130.52   
    66. A(C   3,O  18,H  19)           64.80  0.001313    0.01     64.81   
    67. A(C   1,O  18,H  20)          105.80 -0.000526    0.19    106.00   
    68. A(C   1,O  18,H  19)           56.85  0.000390    0.18     57.03   
    69. D(C   3,C   2,C   1,O  18)    -56.65 -0.000416    0.11    -56.53   
    70. D(C  12,C   2,C   1,O  18)    123.35 -0.000590    0.07    123.42   
    71. D(O  18,C   3,C   2,C  12)   -121.23  0.000735   -0.05   -121.28   
    72. D(O  18,C   3,C   2,C   1)     58.77  0.000555   -0.10     58.67   
    73. D(C   4,C   3,C   2,C   1)   -180.00 -0.000282   -0.12   -180.12   
    74. D(H  14,C   3,C   2,C  12)   -180.00 -0.000082    0.02   -179.98   
    75. D(C   4,C   3,C   2,C  12)     -0.00 -0.000102   -0.07     -0.07   
    76. D(H  14,C   3,C   2,C   1)      0.00 -0.000262   -0.03     -0.03   
    77. D(C  10,C   4,C   3,O  18)    111.74  0.001195   -0.21    111.53   
    78. D(C  10,C   4,C   3,C   2)      0.00 -0.000126    0.12      0.12   
    79. D(C   5,C   4,C   3,O  18)    -68.26  0.001091   -0.19    -68.45   
    80. D(C   5,C   4,C   3,H  14)     -0.00 -0.000250    0.06      0.06   
    81. D(C   5,C   4,C   3,C   2)   -180.00 -0.000231    0.14   -179.86   
    82. D(C  10,C   4,C   3,H  14)   -180.00 -0.000146    0.04   -179.96   
    83. D(C   6,C   5,C   4,C   3)   -180.00 -0.000028    0.03   -179.97   
    84. D(H  15,C   5,C   4,C  10)   -180.00 -0.000119    0.09   -179.91   
    85. D(H  15,C   5,C   4,C   3)      0.00 -0.000015    0.07      0.07   
    86. D(C   6,C   5,C   4,C  10)      0.00 -0.000132    0.05      0.05   
    87. D(H  16,C   6,C   5,H  15)     -0.00  0.000010   -0.02     -0.02   
    88. D(H  16,C   6,C   5,C   4)    180.00  0.000022    0.01    180.01   
    89. D(C   7,C   6,C   5,H  15)    180.00  0.000024   -0.04    179.96   
    90. D(C   7,C   6,C   5,C   4)     -0.00  0.000036   -0.00     -0.00   
    91. D(C   9,C   7,C   6,H  16)   -180.00  0.000072   -0.05   -180.05   
    92. D(C   9,C   7,C   6,C   5)      0.00  0.000059   -0.04     -0.04   
    93. D(O   8,C   7,C   6,H  16)      0.00  0.000037   -0.07     -0.07   
    94. D(O   8,C   7,C   6,C   5)   -180.00  0.000023   -0.05   -180.05   
    95. D(C  10,C   9,C   7,O   8)   -180.00 -0.000023    0.04   -179.96   
    96. D(C  10,C   9,C   7,C   6)     -0.00 -0.000059    0.02      0.02   
    97. D(H  17,C   9,C   7,C   6)    180.00 -0.000108    0.04    180.04   
    98. D(H  17,C   9,C   7,O   8)      0.00 -0.000072    0.06      0.06   
    99. D(C   9,C  10,C   4,C   3)    180.00  0.000033   -0.05    179.95   
   100. D(O  11,C  10,C   9,H  17)     -0.00 -0.000141    0.02      0.02   
   101. D(O  11,C  10,C   9,C   7)    180.00 -0.000190    0.03    180.03   
   102. D(C   4,C  10,C   9,H  17)    180.00  0.000013    0.01    180.01   
   103. D(C   4,C  10,C   9,C   7)     -0.00 -0.000036    0.02      0.02   
   104. D(O  11,C  10,C   4,C   5)   -180.00  0.000292   -0.07   -180.07   
   105. D(O  11,C  10,C   4,C   3)     -0.00  0.000192   -0.05     -0.05   
   106. D(C   9,C  10,C   4,C   5)      0.00  0.000133   -0.06     -0.06   
   107. D(C  12,O  11,C  10,C   9)    180.00  0.000129   -0.08    179.92   
   108. D(C  12,O  11,C  10,C   4)     -0.00 -0.000023   -0.07     -0.07   
   109. D(O  13,C  12,O  11,C  10)   -180.00  0.000149   -0.02   -180.02   
   110. D(C   2,C  12,O  11,C  10)      0.00 -0.000197    0.12      0.12   
   111. D(O  13,C  12,C   2,C   3)    180.00 -0.000086    0.09    180.09   
   112. D(O  13,C  12,C   2,C   1)     -0.00  0.000091    0.14      0.14   
   113. D(O  11,C  12,C   2,C   3)     -0.00  0.000263   -0.05     -0.05   
   114. D(O  11,C  12,C   2,C   1)    180.00  0.000439   -0.00    180.00   
   115. D(C   1,O  18,C   3,H  14)     97.46 -0.001846    0.52     97.98   
   116. D(C   1,O  18,C   3,C   4)   -152.55 -0.003837    0.83   -151.71   
   117. D(H  20,O  18,C   3,H  14)    119.14 -0.000370    1.15    120.30   
   118. D(H  20,O  18,C   3,C   4)   -130.87 -0.002361    1.47   -129.40   
   119. D(H  20,O  18,C   3,C   2)     -4.78 -0.000569    0.98     -3.80   
   120. D(H  19,O  18,C   3,H  14)     31.95  0.000284    0.07     32.02   
   121. D(H  19,O  18,C   3,C   4)    141.94 -0.001707    0.38    142.32   
   122. D(H  19,O  18,C   3,C   2)    -91.98  0.000085   -0.10    -92.08   
   123. D(C   3,O  18,C   1,C   2)     24.76 -0.001918    0.06     24.81   
   124. D(C   3,O  18,C   1,N   0)   -152.71 -0.001447   -0.34   -153.05   
   125. D(H  20,O  18,C   1,C   2)   -138.21 -0.000430    0.50   -137.71   
   126. D(C   1,O  18,C   3,C   2)    -26.46 -0.002045    0.35    -26.12   
   127. D(H  20,O  18,C   1,N   0)     44.32  0.000041    0.10     44.43   
   128. D(H  19,O  18,C   1,C   2)    125.18  0.001383   -0.44    124.74   
   129. D(H  19,O  18,C   1,N   0)    -52.28  0.001854   -0.84    -53.12   
    ----------------------------------------------------------------------------

         *************************************************************
         *                GEOMETRY OPTIMIZATION CYCLE   2            *
         *************************************************************
---------------------------------
CARTESIAN COORDINATES (ANGSTROEM)
---------------------------------
  N    -0.945844   -4.654715   -0.275315
  C    -0.790112   -3.545099   -0.035217
  C    -0.576737   -2.166317    0.195617
  C     0.011681   -1.393741   -0.747359
  C     0.214982   -0.000661   -0.492587
  C     0.815918    0.856484   -1.427865
  C     0.986370    2.185756   -1.128964
  C     0.570451    2.753275    0.121275
  O     0.731993    3.965914    0.382524
  C    -0.038481    1.852181    1.049963
  C    -0.205343    0.522681    0.742093
  O    -0.802581   -0.274058    1.696385
  C    -1.016005   -1.605557    1.489958
  O    -1.540679   -2.269439    2.347882
  H     0.336807   -1.793605   -1.698162
  H     1.149759    0.490949   -2.386177
  H     1.450841    2.836388   -1.858569
  H    -0.372117    2.225616    2.008570
  O    -3.587760   -2.375753   -4.489496
  H    -2.827077   -2.964378   -4.488688
  H    -4.351304   -2.960390   -4.484031

----------------------------
CARTESIAN COORDINATES (A.U.)
----------------------------
  NO LB    ZA    FRAG    MASS        X           Y           Z
   0 N   7.0000    0    14.007   -1.787387   -8.796136   -0.520270
   1 C   6.0000    0    12.011   -1.493094   -6.699266   -0.066551
   2 C   6.0000    0    12.011   -1.089875   -4.093746    0.369663
   3 C   6.0000    0    12.011    0.022075   -2.633788   -1.412304
   4 C   6.0000    0    12.011    0.406258   -0.001250   -0.930854
   5 C   6.0000    0    12.011    1.541862    1.618519   -2.698273
   6 C   6.0000    0    12.011    1.863970    4.130480   -2.133433
   7 C   6.0000    0    12.011    1.077996    5.202936    0.229177
   8 O   8.0000    0    15.999    1.383266    7.494490    0.722865
   9 C   6.0000    0    12.011   -0.072718    3.500115    1.984142
  10 C   6.0000    0    12.011   -0.388042    0.987724    1.402352
  11 O   8.0000    0    15.999   -1.516658   -0.517894    3.205703
  12 C   6.0000    0    12.011   -1.919972   -3.034063    2.815612
  13 O   8.0000    0    15.999   -2.911461   -4.288619    4.436854
  14 H   1.0000    0     1.008    0.636473   -3.389423   -3.209060
  15 H   1.0000    0     1.008    2.172729    0.927760   -4.509220
  16 H   1.0000    0     1.008    2.741691    5.359996   -3.512187
  17 H   1.0000    0     1.008   -0.703199    4.205805    3.795647
  18 O   8.0000    0    15.999   -6.779883   -4.489522   -8.483917
  19 H   1.0000    0     1.008   -5.342401   -5.601862   -8.482391
  20 H   1.0000    0     1.008   -8.222773   -5.594326   -8.473590

      -----------------------------------------------------------      
     |                   =====================                   |     
     |                           x T B                           |     
     |                   =====================                   |     
     |                         S. Grimme                         |     
     |          Mulliken Center for Theoretical Chemistry        |     
     |                    University of Bonn                     |     
      -----------------------------------------------------------      

   * xtb version 6.6.1 (8d0f1dd) compiled by 'stahn@M-Bot' on 2023-08-01

   xtb is free software: you can redistribute it and/or modify it under
   the terms of the GNU Lesser General Public License as published by
   the Free Software Foundation, either version 3 of the License, or
   (at your option) any later version.
   
   xtb is distributed in the hope that it will be useful,
   but WITHOUT ANY WARRANTY; without even the implied warranty of
   MERCHANTABILITY or FITNESS FOR A PARTICULAR PURPOSE.  See the
   GNU Lesser General Public License for more details.
   
   Cite this work as:
   * C. Bannwarth, E. Caldeweyher, S. Ehlert, A. Hansen, P. Pracht,
     J. Seibert, S. Spicher, S. Grimme, WIREs Comput. Mol. Sci., 2020, 11,
     e01493. DOI: 10.1002/wcms.1493
   
   for GFN2-xTB:
   * C. Bannwarth, S. Ehlert and S. Grimme., J. Chem. Theory Comput., 2019,
     15, 1652-1671. DOI: 10.1021/acs.jctc.8b01176
   for GFN1-xTB:
   * S. Grimme, C. Bannwarth, P. Shushkov, J. Chem. Theory Comput., 2017,
     13, 1989-2009. DOI: 10.1021/acs.jctc.7b00118
   for GFN0-xTB:
   * P. Pracht, E. Caldeweyher, S. Ehlert, S. Grimme, ChemRxiv, 2019, preprint.
     DOI: 10.26434/chemrxiv.8326202.v1
   for GFN-FF:
   * S. Spicher and S. Grimme, Angew. Chem. Int. Ed., 2020, 59, 15665-15673.
     DOI: 10.1002/anie.202004239
   
   for ALPB and GBSA implicit solvation:
   * S. Ehlert, M. Stahn, S. Spicher, S. Grimme, J. Chem. Theory Comput.,
     2021, 17, 4250-4261. DOI: 10.1021/acs.jctc.1c00471
   
   for DFT-D4:
   * E. Caldeweyher, C. Bannwarth and S. Grimme, J. Chem. Phys., 2017,
     147, 034112. DOI: 10.1063/1.4993215
   * E. Caldeweyher, S. Ehlert, A. Hansen, H. Neugebauer, S. Spicher,
     C. Bannwarth and S. Grimme, J. Chem. Phys., 2019, 150, 154122.
     DOI: 10.1063/1.5090222
   * E. Caldeweyher, J.-M. Mewes, S. Ehlert and S. Grimme, Phys. Chem. Chem. Phys.
     2020, 22, 8499-8512. DOI: 10.1039/D0CP00502A
   
   for sTDA-xTB:
   * S. Grimme and C. Bannwarth, J. Chem. Phys., 2016, 145, 054103.
     DOI: 10.1063/1.4959605
   
   in the mass-spec context:
   * V. Asgeirsson, C. Bauer and S. Grimme, Chem. Sci., 2017, 8, 4879.
     DOI: 10.1039/c7sc00601b
   * J. Koopman and S. Grimme, ACS Omega 2019, 4, 12, 15120-15133.
     DOI: 10.1021/acsomega.9b02011
   
   for metadynamics refer to:
   * S. Grimme, J. Chem. Theory Comput., 2019, 155, 2847-2862
     DOI: 10.1021/acs.jctc.9b00143
   
   for SPH calculations refer to:
   * S. Spicher and S. Grimme, J. Chem. Theory Comput., 2021, 17, 1701-1714
     DOI: 10.1021/acs.jctc.0c01306
   
   with help from (in alphabetical order)
   P. Atkinson, C. Bannwarth, F. Bohle, G. Brandenburg, E. Caldeweyher
   M. Checinski, S. Dohm, S. Ehlert, S. Ehrlich, I. Gerasimov, C. Hölzer
   A. Katbashev, J. Koopman, C. Lavigne, S. Lehtola, F. März, M. Müller,
   F. Musil, H. Neugebauer, J. Pisarek, C. Plett, P. Pracht, F. Pultar,
   J. Seibert, P. Shushkov, S. Spicher, M. Stahn, M. Steiner, T. Strunk,
   J. Stückrath, T. Rose, and J. Unsleber
   
 * started run on 2025/01/14 at 21:06:57.908     

           -------------------------------------------------
          |                Calculation Setup                |
           -------------------------------------------------

          program call               : /home/jang/cal_tmp/10_orca/orca_5_0_4_linux_x86-64_shared_openmpi411/otool_xtb /home/jang/cal_tmp/10_orca/Gen_chromophore/Gen_molecular_pairs_cal/mol_2_6.xyz/input_XTB.xyz --grad -c 0 -u 0 -P 4 --namespace /home/jang/cal_tmp/10_orca/Gen_chromophore/Gen_molecular_pairs_cal/mol_2_6.xyz/input --input /home/jang/cal_tmp/10_orca/Gen_chromophore/Gen_molecular_pairs_cal/mol_2_6.xyz/input_XTB.input.tmp --acc 1.000000
          hostname                   : node02
          calculation namespace      : /home/jang/cal_tmp/10_orca/Gen_chromophore/Gen_molecular_pairs_cal/mol_2_6.xyz/input
          coordinate file            : /home/jang/cal_tmp/10_orca/Gen_chromophore/Gen_molecular_pairs_cal/mol_2_6.xyz/input_XTB.xyz
          omp threads                :                     4

   ID    Z sym.   atoms
    1    7 N      1
    2    6 C      2-8, 10, 11, 13
    3    8 O      9, 12, 14, 19
    4    1 H      15-18, 20, 21

molecular fragmentation (1/2 indicates fragments):
111111111111111111222
# atoms in fragment 1/2:    18     3
 fragment masses (1/2) :      186.14       18.02
CMA distance (Bohr)    :  11.875
constraining FC (au)   :  0.0500

           -------------------------------------------------
          |                 G F N 2 - x T B                 |
           -------------------------------------------------

        Reference                      10.1021/acs.jctc.8b01176
      * Hamiltonian:
        H0-scaling (s, p, d)           1.850000    2.230000    2.230000
        zeta-weighting                 0.500000
      * Dispersion:
        s8                             2.700000
        a1                             0.520000
        a2                             5.000000
        s9                             5.000000
      * Repulsion:
        kExp                           1.500000    1.000000
        rExp                           1.000000
      * Coulomb:
        alpha                          2.000000
        third order                    shell-resolved
        anisotropic                    true
        a3                             3.000000
        a5                             4.000000
        cn-shift                       1.200000
        cn-exp                         4.000000
        max-rad                        5.000000

q/qsh data taken from xtbrestart
CAMM data taken from xtbrestart

          ...................................................
          :                      SETUP                      :
          :.................................................:
          :  # basis functions                  66          :
          :  # atomic orbitals                  66          :
          :  # shells                           36          :
          :  # electrons                        75          :
          :  max. iterations                   250          :
          :  Hamiltonian                  GFN2-xTB          :
          :  restarted?                       true          :
          :  GBSA solvation                  false          :
          :  PC potential                    false          :
          :  electronic temp.          300.0000000     K    :
          :  accuracy                    1.0000000          :
          :  -> integral cutoff          0.2500000E+02      :
          :  -> integral neglect         0.1000000E-07      :
          :  -> SCF convergence          0.1000000E-05 Eh   :
          :  -> wf. convergence          0.1000000E-03 e    :
          :  Broyden damping             0.4000000          :
          ...................................................

 iter      E             dE          RMSdq      gap      omega  full diag
   1    -44.1357567 -0.441358E+02  0.281E-01    2.23       0.0  T
   2    -44.1360594 -0.302661E-03  0.178E-01    2.23       1.0  T
   3    -44.1361075 -0.481984E-04  0.990E-02    2.23       1.0  T
   4    -44.1361308 -0.232053E-04  0.292E-02    2.22       1.0  T
   5    -44.1361439 -0.131670E-04  0.108E-02    2.23       2.0  T
   6    -44.1361459 -0.194380E-05  0.435E-03    2.23       5.0  T
   7    -44.1361460 -0.113609E-06  0.265E-03    2.23       8.2  T
   8    -44.1361460 -0.423298E-07  0.119E-03    2.23      18.3  T
   9    -44.1361460 -0.164981E-07  0.484E-04    2.23      45.1  T
  10    -44.1361460 -0.343331E-08  0.224E-04    2.23      97.6  T

   *** convergence criteria satisfied after 10 iterations ***

         #    Occupation            Energy/Eh            Energy/eV
      -------------------------------------------------------------
         1        2.0000           -0.7905454             -21.5118
       ...           ...                  ...                  ...
        32        2.0000           -0.4759866             -12.9523
        33        2.0000           -0.4628617             -12.5951
        34        2.0000           -0.4568546             -12.4316
        35        2.0000           -0.4562625             -12.4155
        36        2.0000           -0.4489245             -12.2159
        37        1.9970           -0.4286816             -11.6650
        38        1.0030           -0.4176439             -11.3647 (HOMO)
        39                         -0.3358277              -9.1383 (LUMO)
        40                         -0.2885764              -7.8526
        41                         -0.2642399              -7.1903
        42                         -0.2436906              -6.6312
        43                         -0.2403642              -6.5406
       ...                                ...                  ...
        66                          1.1343539              30.8673
      -------------------------------------------------------------
                  HL-Gap            0.0818163 Eh            2.2263 eV
             Fermi-level           -0.3999493 Eh          -10.8832 eV

 SCC (total)                   0 d,  0 h,  0 min,  0.044 sec
 SCC setup                      ...        0 min,  0.000 sec (  1.030%)
 Dispersion                     ...        0 min,  0.000 sec (  1.074%)
 classical contributions        ...        0 min,  0.000 sec (  0.234%)
 integral evaluation            ...        0 min,  0.003 sec (  6.336%)
 iterations                     ...        0 min,  0.034 sec ( 78.590%)
 molecular gradient             ...        0 min,  0.005 sec ( 11.197%)
 printout                       ...        0 min,  0.001 sec (  1.308%)

         :::::::::::::::::::::::::::::::::::::::::::::::::::::
         ::                     SUMMARY                     ::
         :::::::::::::::::::::::::::::::::::::::::::::::::::::
         :: total energy             -43.542412825715 Eh    ::
         :: gradient norm              0.069275536352 Eh/a0 ::
         :: HOMO-LUMO gap              2.226334174378 eV    ::
         ::.................................................::
         :: SCC energy               -44.136146041701 Eh    ::
         :: -> isotropic ES            0.103664177577 Eh    ::
         :: -> anisotropic ES          0.001750953954 Eh    ::
         :: -> anisotropic XC          0.021630889126 Eh    ::
         :: -> dispersion             -0.018899932716 Eh    ::
         :: repulsion energy           0.593702192689 Eh    ::
         :: add. restraining           0.000000000000 Eh    ::
         :: total charge               0.000000000002 e     ::
         :::::::::::::::::::::::::::::::::::::::::::::::::::::


Property printout bound to 'properties.out'

           -------------------------------------------------
          | TOTAL ENERGY              -43.542412825715 Eh   |
          | GRADIENT NORM               0.069275536352 Eh/α |
          | HOMO-LUMO GAP               2.226334174378 eV   |
           -------------------------------------------------

------------------------------------------------------------------------
 * finished run on 2025/01/14 at 21:06:58.077     
------------------------------------------------------------------------
 total:
 * wall-time:     0 d,  0 h,  0 min,  0.168 sec
 *  cpu-time:     0 d,  0 h,  0 min,  0.423 sec
 * ratio c/w:     2.523 speedup
 SCF:
 * wall-time:     0 d,  0 h,  0 min,  0.044 sec
 *  cpu-time:     0 d,  0 h,  0 min,  0.166 sec
 * ratio c/w:     3.781 speedup


-------------------------   --------------------
FINAL SINGLE POINT ENERGY       -43.542412825720
-------------------------   --------------------

------------------------------------------------------------------------------
                         ORCA GEOMETRY RELAXATION STEP
------------------------------------------------------------------------------

Reading the OPT-File                    .... done
Getting information on internals        .... done
Copying old internal coords+grads       .... done
Making the new internal coordinates     .... (new redundants).... done
Validating the new internal coordinates .... (new redundants).... done
Calculating the B-matrix                .... done
Calculating the G,G- and P matrices     .... done
Transforming gradient to internals      .... done
Projecting the internal gradient        .... done
Number of atoms                         ....  21
Number of internal coordinates          .... 129
Current Energy                          ....   -43.542412826 Eh
Current gradient norm                   ....     0.069275536 Eh/bohr
Maximum allowed component of the step   ....  0.300
Current trust radius                    ....  0.300
Updating the Hessian (BFGS)             .... done
Forming the augmented Hessian           .... done
Diagonalizing the augmented Hessian     .... done
Last element of RFO vector              ....  0.989159897
Lowest eigenvalues of augmented Hessian:
 -0.004870782  0.000054575  0.001462512  0.002324023  0.005775258
Length of the computed step             ....  0.148451657
The final length of the internal step   ....  0.148451657
Converting the step to cartesian space:
 Initial RMS(Int)=    0.0130704396
Transforming coordinates:
 Iter   0:  RMS(Cart)=    0.0196077451 RMS(Int)=    0.9579426867
 Iter   1:  RMS(Cart)=    0.0001982444 RMS(Int)=    0.0001303187
 Iter   2:  RMS(Cart)=    0.0000046503 RMS(Int)=    0.0000036738
 Iter   3:  RMS(Cart)=    0.0000001329 RMS(Int)=    0.0000001042
 Iter   4:  RMS(Cart)=    0.0000000038 RMS(Int)=    0.0000000034
done
Storing new coordinates                 .... done

                                .--------------------.
          ----------------------|Geometry convergence|-------------------------
          Item                value                   Tolerance       Converged
          ---------------------------------------------------------------------
          Energy change      -0.0121969464            0.0000050000      NO
          RMS gradient        0.0036679763            0.0001000000      NO
          MAX gradient        0.0199985650            0.0003000000      NO
          RMS step            0.0130704396            0.0020000000      NO
          MAX step            0.0407301241            0.0040000000      NO
          ........................................................
          Max(Bonds)      0.0207      Max(Angles)    1.29
          Max(Dihed)        2.33      Max(Improp)    0.00
          ---------------------------------------------------------------------

The optimization has not yet converged - more geometry cycles are needed


    ---------------------------------------------------------------------------
                         Redundant Internal Coordinates
                            (Angstroem and degrees)

        Definition                    Value    dE/dq     Step     New-Value
    ----------------------------------------------------------------------------
     1. B(C   1,N   0)                1.1459  0.000230 -0.0013    1.1446   
     2. B(C   2,C   1)                1.4142  0.001991 -0.0037    1.4104   
     3. B(C   3,C   2)                1.3536 -0.009039  0.0120    1.3656   
     4. B(C   4,C   3)                1.4307  0.010336 -0.0172    1.4135   
     5. B(C   5,C   4)                1.4038 -0.008695  0.0121    1.4158   
     6. B(C   6,C   5)                1.3731  0.011970 -0.0183    1.3548   
     7. B(C   7,C   6)                1.4346 -0.013593  0.0203    1.4550   
     8. B(O   8,C   7)                1.2509  0.019999 -0.0203    1.2306   
     9. B(C   9,C   7)                1.4301 -0.012520  0.0188    1.4489   
    10. B(C  10,C   9)                1.3748  0.005461 -0.0085    1.3663   
    11. B(C  10,C   4)                1.4053 -0.010964  0.0152    1.4205   
    12. B(O  11,C  10)                1.3792  0.011753 -0.0207    1.3585   
    13. B(C  12,C   2)                1.4774 -0.000468  0.0008    1.4782   
    14. B(C  12,O  11)                1.3642  0.005175 -0.0097    1.3545   
    15. B(O  13,C  12)                1.2050  0.008367 -0.0084    1.1966   
    16. B(H  14,C   3)                1.0815  0.000458 -0.0011    1.0804   
    17. B(H  15,C   5)                1.0786 -0.000095 -0.0001    1.0785   
    18. B(H  16,C   6)                1.0823  0.001456 -0.0037    1.0786   
    19. B(H  17,C   9)                1.0815  0.001537 -0.0038    1.0777   
    20. B(O  18,H  14)                4.8510  0.000029 -0.0083    4.8427   
    21. B(O  18,C   3)                5.2843  0.000143 -0.0088    5.2755   
    22. B(O  18,C   1)                5.3884  0.000184 -0.0128    5.3756   
    23. B(H  19,H  14)                4.3781  0.000157 -0.0016    4.3765   
    24. B(H  19,C   3)                4.9521  0.000391 -0.0021    4.9500   
    25. B(H  19,C   2)                5.2577 -0.000030 -0.0057    5.2520   
    26. B(H  19,C   1)                4.9315 -0.000304 -0.0078    4.9237   
    27. B(H  19,N   0)                4.9141 -0.000241 -0.0000    4.9141   
    28. B(H  19,O  18)                0.9618  0.001079 -0.0024    0.9595   
    29. B(H  20,O  18)                0.9617  0.001156 -0.0023    0.9594   
    30. A(N   0,C   1,O  18)           88.07  0.000205    0.23     88.30   
    31. A(C   2,C   1,O  18)           90.10 -0.000335    0.10     90.20   
    32. A(C   3,C   2,C  12)          121.53  0.000695   -0.07    121.46   
    33. A(C   1,C   2,C   3)          120.55 -0.000448    0.31    120.86   
    34. A(C   1,C   2,C  12)          117.92 -0.000247   -0.23    117.68   
    35. A(C   2,C   3,O  18)           95.23  0.001101   -0.29     94.94   
    36. A(C   4,C   3,H  14)          118.28 -0.001126    0.41    118.69   
    37. A(H  14,C   3,O  18)           60.89  0.000015   -0.00     60.88   
    38. A(C   2,C   3,H  14)          122.15  0.001448   -0.42    121.73   
    39. A(C   4,C   3,O  18)          113.82 -0.000806    0.19    114.01   
    40. A(C   2,C   3,C   4)          119.57 -0.000322    0.01    119.58   
    41. A(C   3,C   4,C   5)          122.46 -0.001585    0.24    122.71   
    42. A(C   5,C   4,C  10)          119.08 -0.000628    0.09    119.17   
    43. A(C   3,C   4,C  10)          118.46  0.002213   -0.34    118.12   
    44. A(C   6,C   5,H  15)          118.89 -0.002420    0.66    119.55   
    45. A(C   4,C   5,H  15)          121.17  0.005380   -1.29    119.88   
    46. A(C   4,C   5,C   6)          119.95 -0.002960    0.62    120.57   
    47. A(C   7,C   6,H  16)          118.30  0.001220   -0.31    117.99   
    48. A(C   5,C   6,H  16)          119.24 -0.003778    0.93    120.18   
    49. A(C   5,C   6,C   7)          122.46  0.002558   -0.63    121.83   
    50. A(C   6,C   7,C   9)          116.11 -0.001638    0.42    116.53   
    51. A(C   6,C   7,O   8)          121.87  0.000813   -0.20    121.67   
    52. A(O   8,C   7,C   9)          122.02  0.000825   -0.21    121.80   
    53. A(C  10,C   9,H  17)          119.67 -0.001355    0.29    119.96   
    54. A(C   7,C   9,H  17)          119.30 -0.000302    0.06    119.36   
    55. A(C   7,C   9,C  10)          121.04  0.001657   -0.36    120.68   
    56. A(C   9,C  10,O  11)          117.15 -0.001043    0.17    117.31   
    57. A(C   4,C  10,O  11)          121.49  0.000032   -0.02    121.46   
    58. A(C   4,C  10,C   9)          121.37  0.001011   -0.15    121.22   
    59. A(C  10,O  11,C  12)          121.80 -0.005421    1.00    122.80   
    60. A(O  11,C  12,O  13)          119.88  0.003286   -0.69    119.18   
    61. A(C   2,C  12,O  13)          122.96 -0.006088    1.28    124.24   
    62. A(C   2,C  12,O  11)          117.16  0.002802   -0.58    116.58   
    63. A(H  19,O  18,H  20)          104.83 -0.001236    1.15    105.98   
    64. A(C   1,O  18,C   3)           26.01 -0.000683    0.17     26.18   
    65. A(C   3,O  18,H  20)          130.52 -0.001217    0.22    130.75   
    66. A(C   3,O  18,H  19)           64.81  0.000302    0.36     65.17   
    67. A(C   1,O  18,H  20)          106.00 -0.000534    0.30    106.30   
    68. A(C   1,O  18,H  19)           57.04 -0.000032    0.25     57.29   
    69. D(C   3,C   2,C   1,O  18)    -56.53 -0.000165    0.13    -56.41   
    70. D(C  12,C   2,C   1,O  18)    123.42 -0.000181    0.01    123.43   
    71. D(O  18,C   3,C   2,C  12)   -121.28  0.000369   -0.13   -121.41   
    72. D(O  18,C   3,C   2,C   1)     58.67  0.000352   -0.25     58.42   
    73. D(C   4,C   3,C   2,C   1)    179.88  0.000002   -0.21    179.67   
    74. D(H  14,C   3,C   2,C  12)   -179.98  0.000001   -0.04   -180.03   
    75. D(C   4,C   3,C   2,C  12)     -0.07  0.000020   -0.09     -0.16   
    76. D(H  14,C   3,C   2,C   1)     -0.03 -0.000016   -0.17     -0.20   
    77. D(C  10,C   4,C   3,O  18)    111.53  0.000538   -0.17    111.37   
    78. D(C  10,C   4,C   3,C   2)      0.12 -0.000087    0.06      0.18   
    79. D(C   5,C   4,C   3,O  18)    -68.45  0.000497   -0.13    -68.58   
    80. D(C   5,C   4,C   3,H  14)      0.06 -0.000108    0.05      0.11   
    81. D(C   5,C   4,C   3,C   2)   -179.86 -0.000128    0.10   -179.76   
    82. D(C  10,C   4,C   3,H  14)   -179.96 -0.000067    0.01   -179.95   
    83. D(C   6,C   5,C   4,C   3)   -179.97 -0.000023    0.02   -179.95   
    84. D(H  15,C   5,C   4,C  10)   -179.91 -0.000063    0.11   -179.80   
    85. D(H  15,C   5,C   4,C   3)      0.07 -0.000022    0.07      0.14   
    86. D(C   6,C   5,C   4,C  10)      0.05 -0.000064    0.06      0.11   
    87. D(H  16,C   6,C   5,H  15)     -0.02  0.000005   -0.02     -0.04   
    88. D(H  16,C   6,C   5,C   4)   -179.99  0.000003    0.03   -179.96   
    89. D(C   7,C   6,C   5,H  15)    179.96  0.000011   -0.03    179.93   
    90. D(C   7,C   6,C   5,C   4)     -0.00  0.000009    0.02      0.01   
    91. D(C   9,C   7,C   6,H  16)    179.95  0.000046   -0.08    179.87   
    92. D(C   9,C   7,C   6,C   5)     -0.04  0.000040   -0.07     -0.10   
    93. D(O   8,C   7,C   6,H  16)     -0.07  0.000030   -0.09     -0.16   
    94. D(O   8,C   7,C   6,C   5)    179.95  0.000025   -0.08    179.87   
    95. D(C  10,C   9,C   7,O   8)   -179.96 -0.000018    0.06   -179.90   
    96. D(C  10,C   9,C   7,C   6)      0.02 -0.000034    0.05      0.07   
    97. D(H  17,C   9,C   7,C   6)   -179.96 -0.000055    0.05   -179.91   
    98. D(H  17,C   9,C   7,O   8)      0.06 -0.000039    0.06      0.12   
    99. D(C   9,C  10,C   4,C   3)    179.95  0.000030   -0.04    179.91   
   100. D(O  11,C  10,C   9,H  17)      0.02 -0.000050   -0.03     -0.01   
   101. D(O  11,C  10,C   9,C   7)   -179.97 -0.000071   -0.02   -179.99   
   102. D(C   4,C  10,C   9,H  17)   -179.99  0.000002    0.02   -179.97   
   103. D(C   4,C  10,C   9,C   7)      0.02 -0.000019    0.02      0.05   
   104. D(O  11,C  10,C   4,C   5)    179.93  0.000123   -0.03    179.90   
   105. D(O  11,C  10,C   4,C   3)     -0.06  0.000084    0.01     -0.05   
   106. D(C   9,C  10,C   4,C   5)     -0.06  0.000069   -0.08     -0.14   
   107. D(C  12,O  11,C  10,C   9)    179.92  0.000060    0.00    179.92   
   108. D(C  12,O  11,C  10,C   4)     -0.07  0.000008   -0.04     -0.12   
   109. D(O  13,C  12,O  11,C  10)    179.98 -0.000025    0.15    180.13   
   110. D(C   2,C  12,O  11,C  10)      0.12 -0.000076    0.01      0.14   
   111. D(O  13,C  12,C   2,C   3)   -179.91 -0.000005   -0.08   -179.99   
   112. D(O  13,C  12,C   2,C   1)      0.14  0.000012    0.04      0.18   
   113. D(O  11,C  12,C   2,C   3)     -0.05  0.000062    0.05      0.00   
   114. D(O  11,C  12,C   2,C   1)    179.99  0.000079    0.18    180.17   
   115. D(C   1,O  18,C   3,H  14)     97.98 -0.000252    0.03     98.01   
   116. D(C   1,O  18,C   3,C   4)   -151.71 -0.001224    0.43   -151.29   
   117. D(H  20,O  18,C   3,H  14)    120.30 -0.000160    1.94    122.23   
   118. D(H  20,O  18,C   3,C   4)   -129.40 -0.001133    2.33   -127.06   
   119. D(H  20,O  18,C   3,C   2)     -3.80 -0.001186    2.26     -1.54   
   120. D(H  19,O  18,C   3,H  14)     32.02  0.000711    0.11     32.13   
   121. D(H  19,O  18,C   3,C   4)    142.32 -0.000262    0.51    142.83   
   122. D(H  19,O  18,C   3,C   2)    -92.08 -0.000315    0.43    -91.65   
   123. D(C   3,O  18,C   1,C   2)     24.81 -0.000820   -0.01     24.81   
   124. D(C   3,O  18,C   1,N   0)   -153.05 -0.000538   -1.47   -154.52   
   125. D(H  20,O  18,C   1,C   2)   -137.71 -0.000470    1.43   -136.28   
   126. D(C   1,O  18,C   3,C   2)    -26.12 -0.001278    0.35    -25.77   
   127. D(H  20,O  18,C   1,N   0)     44.43 -0.000189   -0.04     44.39   
   128. D(H  19,O  18,C   1,C   2)    124.74  0.000701    0.17    124.91   
   129. D(H  19,O  18,C   1,N   0)    -53.12  0.000983   -1.30    -54.42   
    ----------------------------------------------------------------------------

         *************************************************************
         *                GEOMETRY OPTIMIZATION CYCLE   3            *
         *************************************************************
---------------------------------
CARTESIAN COORDINATES (ANGSTROEM)
---------------------------------
  N    -0.968187   -4.647101   -0.254124
  C    -0.788626   -3.537852   -0.036431
  C    -0.572381   -2.163028    0.192480
  C     0.020989   -1.379851   -0.755932
  C     0.218133   -0.003663   -0.500771
  C     0.821376    0.869365   -1.438087
  C     0.990240    2.181862   -1.147854
  C     0.565417    2.747258    0.123638
  O     0.722304    3.939474    0.385285
  C    -0.050673    1.833635    1.064323
  C    -0.211690    0.513578    0.750528
  O    -0.797734   -0.281744    1.683032
  C    -1.013107   -1.604820    1.488375
  O    -1.537125   -2.244139    2.353608
  H     0.345164   -1.783228   -1.704299
  H     1.149018    0.489342   -2.392738
  H     1.449963    2.841403   -1.866917
  H    -0.383918    2.204203    2.019910
  O    -3.574793   -2.378110   -4.484929
  H    -2.818850   -2.968954   -4.485850
  H    -4.350753   -2.942099   -4.471414

----------------------------
CARTESIAN COORDINATES (A.U.)
----------------------------
  NO LB    ZA    FRAG    MASS        X           Y           Z
   0 N   7.0000    0    14.007   -1.829609   -8.781748   -0.480224
   1 C   6.0000    0    12.011   -1.490287   -6.685572   -0.068844
   2 C   6.0000    0    12.011   -1.081644   -4.087530    0.363735
   3 C   6.0000    0    12.011    0.039664   -2.607541   -1.428504
   4 C   6.0000    0    12.011    0.412212   -0.006922   -0.946319
   5 C   6.0000    0    12.011    1.552176    1.642861   -2.717591
   6 C   6.0000    0    12.011    1.871282    4.123121   -2.169129
   7 C   6.0000    0    12.011    1.068483    5.191566    0.233642
   8 O   8.0000    0    15.999    1.364956    7.444527    0.728084
   9 C   6.0000    0    12.011   -0.095759    3.465067    2.011279
  10 C   6.0000    0    12.011   -0.400036    0.970522    1.418293
  11 O   8.0000    0    15.999   -1.507499   -0.532418    3.180470
[...]
    68. A(C   1,O  18,H  19)           76.25  0.000011   -0.17     76.08   
    69. D(C   3,C   2,C   1,O  18)   -107.11  0.000000   -0.02   -107.13   
    70. D(C  12,C   2,C   1,O  18)     71.08 -0.000001   -0.02     71.06   
    71. D(O  18,C   3,C   2,C  12)    -66.02 -0.000009   -0.01    -66.02   
    72. D(O  18,C   3,C   2,C   1)    112.10 -0.000010   -0.00    112.10   
    73. D(C   4,C   3,C   2,C   1)    178.06 -0.000018    0.03    178.10   
    74. D(H  14,C   3,C   2,C  12)   -179.17 -0.000006    0.02   -179.16   
    75. D(C   4,C   3,C   2,C  12)     -0.06 -0.000017    0.03     -0.03   
    76. D(H  14,C   3,C   2,C   1)     -1.05 -0.000007    0.02     -1.03   
    77. D(C  10,C   4,C   3,O  18)     52.94 -0.000001   -0.02     52.92   
    78. D(C  10,C   4,C   3,C   2)      0.80  0.000007   -0.02      0.78   
    79. D(C   5,C   4,C   3,O  18)   -126.61  0.000003   -0.04   -126.65   
    80. D(C   5,C   4,C   3,H  14)      0.37  0.000001   -0.03      0.34   
    81. D(C   5,C   4,C   3,C   2)   -178.75  0.000011   -0.04   -178.79   
    82. D(C  10,C   4,C   3,H  14)    179.92 -0.000003   -0.00    179.91   
    83. D(C   6,C   5,C   4,C   3)    179.51 -0.000005    0.02    179.53   
    84. D(H  15,C   5,C   4,C  10)   -179.90 -0.000002    0.00   -179.90   
    85. D(H  15,C   5,C   4,C   3)     -0.35 -0.000006    0.03     -0.33   
    86. D(C   6,C   5,C   4,C  10)     -0.04 -0.000001    0.00     -0.04   
    87. D(H  16,C   6,C   5,H  15)     -0.02  0.000002   -0.01     -0.03   
    88. D(H  16,C   6,C   5,C   4)   -179.87  0.000002   -0.01   -179.87   
    89. D(C   7,C   6,C   5,H  15)    179.89  0.000001   -0.01    179.89   
    90. D(C   7,C   6,C   5,C   4)      0.04  0.000001   -0.00      0.04   
    91. D(C   9,C   7,C   6,H  16)    179.94 -0.000001    0.00    179.94   
    92. D(C   9,C   7,C   6,C   5)      0.03 -0.000000    0.00      0.03   
    93. D(O   8,C   7,C   6,H  16)     -0.02 -0.000000    0.01     -0.01   
    94. D(O   8,C   7,C   6,C   5)   -179.93  0.000000    0.01   -179.93   
    95. D(C  10,C   9,C   7,O   8)    179.86 -0.000000   -0.00    179.86   
    96. D(C  10,C   9,C   7,C   6)     -0.09  0.000001    0.00     -0.09   
    97. D(H  17,C   9,C   7,C   6)   -180.00  0.000001   -0.00   -180.00   
    98. D(H  17,C   9,C   7,O   8)     -0.04  0.000000   -0.01     -0.05   
    99. D(C   9,C  10,C   4,C   3)   -179.60  0.000006   -0.02   -179.61   
   100. D(O  11,C  10,C   9,H  17)     -0.24 -0.000003    0.00     -0.24   
   101. D(O  11,C  10,C   9,C   7)    179.86 -0.000003   -0.00    179.86   
   102. D(C   4,C  10,C   9,H  17)    180.00 -0.000002    0.00    180.00   
   103. D(C   4,C  10,C   9,C   7)      0.10 -0.000002   -0.00      0.09   
   104. D(O  11,C  10,C   4,C   5)   -179.78  0.000003   -0.00   -179.78   
   105. D(O  11,C  10,C   4,C   3)      0.65  0.000007   -0.02      0.63   
   106. D(C   9,C  10,C   4,C   5)     -0.03  0.000002    0.00     -0.02   
   107. D(C  12,O  11,C  10,C   9)    177.20 -0.000009    0.05    177.24   
   108. D(C  12,O  11,C  10,C   4)     -3.04 -0.000011    0.05     -2.99   
   109. D(O  13,C  12,O  11,C  10)   -177.52  0.000012   -0.04   -177.56   
   110. D(C   2,C  12,O  11,C  10)      3.64  0.000001   -0.04      3.61   
   111. D(O  13,C  12,C   2,C   3)    179.16 -0.000001   -0.00    179.16   
   112. D(O  13,C  12,C   2,C   1)      0.97  0.000001   -0.00      0.96   
   113. D(O  11,C  12,C   2,C   3)     -2.08  0.000012   -0.00     -2.09   
   114. D(O  11,C  12,C   2,C   1)    179.72  0.000013   -0.01    179.71   
   115. D(C   1,O  18,C   3,H  14)     79.79  0.000009   -0.03     79.76   
   116. D(C   1,O  18,C   3,C   4)   -156.22 -0.000006    0.01   -156.21   
   117. D(H  20,O  18,C   3,H  14)   -171.02  0.000009    0.21   -170.80   
   118. D(H  20,O  18,C   3,C   4)    -47.03 -0.000006    0.26    -46.77   
   119. D(H  20,O  18,C   3,C   2)     80.60 -0.000016    0.24     80.84   
   120. D(H  19,O  18,C   3,H  14)     45.51  0.000015    0.26     45.77   
   121. D(H  19,O  18,C   3,C   4)    169.50  0.000001    0.30    169.80   
   122. D(H  19,O  18,C   3,C   2)    -62.87 -0.000010    0.29    -62.58   
   123. D(C   3,O  18,C   1,C   2)     30.74  0.000004   -0.01     30.73   
   124. D(C   3,O  18,C   1,N   0)   -147.44 -0.000001   -0.02   -147.46   
   125. D(H  20,O  18,C   1,C   2)    -82.30 -0.000005    0.11    -82.19   
   126. D(C   1,O  18,C   3,C   2)    -28.59 -0.000016   -0.00    -28.60   
   127. D(H  20,O  18,C   1,N   0)     99.52 -0.000010    0.10     99.62   
   128. D(H  19,O  18,C   1,C   2)    178.03  0.000014    0.21    178.24   
   129. D(H  19,O  18,C   1,N   0)     -0.15  0.000009    0.20      0.05   
    ----------------------------------------------------------------------------

Time needed for optimization step       :     2.74 sec
                 *******************************************************
                 *** FINAL ENERGY EVALUATION AT THE STATIONARY POINT ***
                 ***               (AFTER   86 CYCLES)               ***
                 *******************************************************
---------------------------------
CARTESIAN COORDINATES (ANGSTROEM)
---------------------------------
  N    -0.563692   -4.929342   -0.789651
  C    -0.545489   -3.800582   -0.586324
  C    -0.510364   -2.411189   -0.369852
  C     0.372640   -1.607563   -1.041203
  C     0.356408   -0.217722   -0.832788
  C     1.225705    0.676017   -1.513215
  C     1.173504    2.008677   -1.292487
  C     0.223797    2.594828   -0.345232
  O     0.172019    3.804465   -0.142667
  C    -0.652090    1.657710    0.337547
  C    -0.583041    0.313886    0.098088
  O    -1.429255   -0.499700    0.773869
  C    -1.489241   -1.845364    0.578620
  O    -2.301461   -2.482828    1.190982
  H     1.074641   -2.036520   -1.743128
  H     1.929985    0.254783   -2.216406
  H     1.828725    2.695317   -1.806407
  H    -1.366456    2.050841    1.043912
  O    -2.873358   -1.384191   -1.635135
  H    -3.218953   -2.207217   -1.990545
  H    -3.609260   -0.948777   -1.196138

----------------------------
CARTESIAN COORDINATES (A.U.)
----------------------------
  NO LB    ZA    FRAG    MASS        X           Y           Z
   0 N   7.0000    0    14.007   -1.065224   -9.315106   -1.492223
   1 C   6.0000    0    12.011   -1.030825   -7.182058   -1.107993
   2 C   6.0000    0    12.011   -0.964448   -4.556487   -0.698920
   3 C   6.0000    0    12.011    0.704188   -3.037853   -1.967589
   4 C   6.0000    0    12.011    0.673513   -0.411435   -1.573742
   5 C   6.0000    0    12.011    2.316246    1.277487   -2.859563
   6 C   6.0000    0    12.011    2.217601    3.795849   -2.442447
   7 C   6.0000    0    12.011    0.422914    4.903515   -0.652393
   8 O   8.0000    0    15.999    0.325070    7.189397   -0.269601
   9 C   6.0000    0    12.011   -1.232271    3.132619    0.637871
  10 C   6.0000    0    12.011   -1.101789    0.593159    0.185359
  11 O   8.0000    0    15.999   -2.700901   -0.944296    1.462400
  12 C   6.0000    0    12.011   -2.814257   -3.487233    1.093433
  13 O   8.0000    0    15.999   -4.349131   -4.691865    2.250629
  14 H   1.0000    0     1.008    2.030777   -3.848464   -3.294035
  15 H   1.0000    0     1.008    3.647143    0.481471   -4.188401
  16 H   1.0000    0     1.008    3.455790    5.093411   -3.413615
  17 H   1.0000    0     1.008   -2.582227    3.875529    1.972707
  18 O   8.0000    0    15.999   -5.429860   -2.615741   -3.089958
  19 H   1.0000    0     1.008   -6.082939   -4.171037   -3.761585
  20 H   1.0000    0     1.008   -6.820513   -1.792928   -2.260372

      -----------------------------------------------------------      
     |                   =====================                   |     
     |                           x T B                           |     
     |                   =====================                   |     
     |                         S. Grimme                         |     
     |          Mulliken Center for Theoretical Chemistry        |     
     |                    University of Bonn                     |     
      -----------------------------------------------------------      

   * xtb version 6.6.1 (8d0f1dd) compiled by 'stahn@M-Bot' on 2023-08-01

   xtb is free software: you can redistribute it and/or modify it under
   the terms of the GNU Lesser General Public License as published by
   the Free Software Foundation, either version 3 of the License, or
   (at your option) any later version.
   
   xtb is distributed in the hope that it will be useful,
   but WITHOUT ANY WARRANTY; without even the implied warranty of
   MERCHANTABILITY or FITNESS FOR A PARTICULAR PURPOSE.  See the
   GNU Lesser General Public License for more details.
   
   Cite this work as:
   * C. Bannwarth, E. Caldeweyher, S. Ehlert, A. Hansen, P. Pracht,
     J. Seibert, S. Spicher, S. Grimme, WIREs Comput. Mol. Sci., 2020, 11,
     e01493. DOI: 10.1002/wcms.1493
   
   for GFN2-xTB:
   * C. Bannwarth, S. Ehlert and S. Grimme., J. Chem. Theory Comput., 2019,
     15, 1652-1671. DOI: 10.1021/acs.jctc.8b01176
   for GFN1-xTB:
   * S. Grimme, C. Bannwarth, P. Shushkov, J. Chem. Theory Comput., 2017,
     13, 1989-2009. DOI: 10.1021/acs.jctc.7b00118
   for GFN0-xTB:
   * P. Pracht, E. Caldeweyher, S. Ehlert, S. Grimme, ChemRxiv, 2019, preprint.
     DOI: 10.26434/chemrxiv.8326202.v1
   for GFN-FF:
   * S. Spicher and S. Grimme, Angew. Chem. Int. Ed., 2020, 59, 15665-15673.
     DOI: 10.1002/anie.202004239
   
   for ALPB and GBSA implicit solvation:
   * S. Ehlert, M. Stahn, S. Spicher, S. Grimme, J. Chem. Theory Comput.,
     2021, 17, 4250-4261. DOI: 10.1021/acs.jctc.1c00471
   
   for DFT-D4:
   * E. Caldeweyher, C. Bannwarth and S. Grimme, J. Chem. Phys., 2017,
     147, 034112. DOI: 10.1063/1.4993215
   * E. Caldeweyher, S. Ehlert, A. Hansen, H. Neugebauer, S. Spicher,
     C. Bannwarth and S. Grimme, J. Chem. Phys., 2019, 150, 154122.
     DOI: 10.1063/1.5090222
   * E. Caldeweyher, J.-M. Mewes, S. Ehlert and S. Grimme, Phys. Chem. Chem. Phys.
     2020, 22, 8499-8512. DOI: 10.1039/D0CP00502A
   
   for sTDA-xTB:
   * S. Grimme and C. Bannwarth, J. Chem. Phys., 2016, 145, 054103.
     DOI: 10.1063/1.4959605
   
   in the mass-spec context:
   * V. Asgeirsson, C. Bauer and S. Grimme, Chem. Sci., 2017, 8, 4879.
     DOI: 10.1039/c7sc00601b
   * J. Koopman and S. Grimme, ACS Omega 2019, 4, 12, 15120-15133.
     DOI: 10.1021/acsomega.9b02011
   
   for metadynamics refer to:
   * S. Grimme, J. Chem. Theory Comput., 2019, 155, 2847-2862
     DOI: 10.1021/acs.jctc.9b00143
   
   for SPH calculations refer to:
   * S. Spicher and S. Grimme, J. Chem. Theory Comput., 2021, 17, 1701-1714
     DOI: 10.1021/acs.jctc.0c01306
   
   with help from (in alphabetical order)
   P. Atkinson, C. Bannwarth, F. Bohle, G. Brandenburg, E. Caldeweyher
   M. Checinski, S. Dohm, S. Ehlert, S. Ehrlich, I. Gerasimov, C. Hölzer
   A. Katbashev, J. Koopman, C. Lavigne, S. Lehtola, F. März, M. Müller,
   F. Musil, H. Neugebauer, J. Pisarek, C. Plett, P. Pracht, F. Pultar,
   J. Seibert, P. Shushkov, S. Spicher, M. Stahn, M. Steiner, T. Strunk,
   J. Stückrath, T. Rose, and J. Unsleber
   
 * started run on 2025/01/14 at 21:19:56.377     

           -------------------------------------------------
          |                Calculation Setup                |
           -------------------------------------------------

          program call               : /home/jang/cal_tmp/10_orca/orca_5_0_4_linux_x86-64_shared_openmpi411/otool_xtb /home/jang/cal_tmp/10_orca/Gen_chromophore/Gen_molecular_pairs_cal/mol_2_6.xyz/input_XTB.xyz --grad -c 0 -u 0 -P 4 --namespace /home/jang/cal_tmp/10_orca/Gen_chromophore/Gen_molecular_pairs_cal/mol_2_6.xyz/input --input /home/jang/cal_tmp/10_orca/Gen_chromophore/Gen_molecular_pairs_cal/mol_2_6.xyz/input_XTB.input.tmp --acc 1.000000
          hostname                   : node02
          calculation namespace      : /home/jang/cal_tmp/10_orca/Gen_chromophore/Gen_molecular_pairs_cal/mol_2_6.xyz/input
          coordinate file            : /home/jang/cal_tmp/10_orca/Gen_chromophore/Gen_molecular_pairs_cal/mol_2_6.xyz/input_XTB.xyz
          omp threads                :                     4

   ID    Z sym.   atoms
    1    7 N      1
    2    6 C      2-8, 10, 11, 13
    3    8 O      9, 12, 14, 19
    4    1 H      15-18, 20, 21

molecular fragmentation (1/2 indicates fragments):
111111111111111111222
# atoms in fragment 1/2:    18     3
 fragment masses (1/2) :      186.14       18.02
CMA distance (Bohr)    :   5.811
constraining FC (au)   :  0.0500

           -------------------------------------------------
          |                 G F N 2 - x T B                 |
           -------------------------------------------------

        Reference                      10.1021/acs.jctc.8b01176
      * Hamiltonian:
        H0-scaling (s, p, d)           1.850000    2.230000    2.230000
        zeta-weighting                 0.500000
      * Dispersion:
        s8                             2.700000
        a1                             0.520000
        a2                             5.000000
        s9                             5.000000
      * Repulsion:
        kExp                           1.500000    1.000000
        rExp                           1.000000
      * Coulomb:
        alpha                          2.000000
        third order                    shell-resolved
        anisotropic                    true
        a3                             3.000000
        a5                             4.000000
        cn-shift                       1.200000
        cn-exp                         4.000000
        max-rad                        5.000000

q/qsh data taken from xtbrestart
CAMM data taken from xtbrestart

          ...................................................
          :                      SETUP                      :
          :.................................................:
          :  # basis functions                  66          :
          :  # atomic orbitals                  66          :
          :  # shells                           36          :
          :  # electrons                        75          :
          :  max. iterations                   250          :
          :  Hamiltonian                  GFN2-xTB          :
          :  restarted?                       true          :
          :  GBSA solvation                  false          :
          :  PC potential                    false          :
          :  electronic temp.          300.0000000     K    :
          :  accuracy                    1.0000000          :
          :  -> integral cutoff          0.2500000E+02      :
          :  -> integral neglect         0.1000000E-07      :
          :  -> SCF convergence          0.1000000E-05 Eh   :
          :  -> wf. convergence          0.1000000E-03 e    :
          :  Broyden damping             0.4000000          :
          ...................................................

 iter      E             dE          RMSdq      gap      omega  full diag
   1    -44.1514932 -0.441515E+02  0.548E-03    2.23       0.0  T
   2    -44.1514932 -0.309946E-08  0.328E-03    2.23       6.6  T
   3    -44.1514932  0.141632E-07  0.810E-04    2.23      26.9  T
   4    -44.1514932 -0.159759E-07  0.201E-04    2.23     108.6  T

   *** convergence criteria satisfied after 4 iterations ***

         #    Occupation            Energy/Eh            Energy/eV
      -------------------------------------------------------------
         1        2.0000           -0.7824538             -21.2917
       ...           ...                  ...                  ...
        32        2.0000           -0.4739281             -12.8962
        33        2.0000           -0.4661163             -12.6837
        34        2.0000           -0.4551185             -12.3844
        35        2.0000           -0.4471189             -12.1667
        36        2.0000           -0.4402954             -11.9810
        37        1.9991           -0.4200870             -11.4311
        38        1.0009           -0.4067447             -11.0681 (HOMO)
        39                         -0.3246511              -8.8342 (LUMO)
        40                         -0.2766333              -7.5276
        41                         -0.2509631              -6.8291
        42                         -0.2357994              -6.4164
        43                         -0.2313099              -6.2943
       ...                                ...                  ...
        66                          1.1459260              31.1822
      -------------------------------------------------------------
                  HL-Gap            0.0820937 Eh            2.2339 eV
             Fermi-level           -0.3895569 Eh          -10.6004 eV

 SCC (total)                   0 d,  0 h,  0 min,  0.047 sec
 SCC setup                      ...        0 min,  0.000 sec (  0.999%)
 Dispersion                     ...        0 min,  0.000 sec (  1.001%)
 classical contributions        ...        0 min,  0.000 sec (  0.197%)
 integral evaluation            ...        0 min,  0.003 sec (  6.909%)
 iterations                     ...        0 min,  0.037 sec ( 77.950%)
 molecular gradient             ...        0 min,  0.005 sec ( 11.477%)
 printout                       ...        0 min,  0.001 sec (  1.242%)

         :::::::::::::::::::::::::::::::::::::::::::::::::::::
         ::                     SUMMARY                     ::
         :::::::::::::::::::::::::::::::::::::::::::::::::::::
         :: total energy             -43.554005329100 Eh    ::
         :: gradient norm              0.000210390176 Eh/a0 ::
         :: HOMO-LUMO gap              2.233881964204 eV    ::
         ::.................................................::
         :: SCC energy               -44.151493246377 Eh    ::
         :: -> isotropic ES            0.102998991654 Eh    ::
         :: -> anisotropic ES         -0.000564560737 Eh    ::
         :: -> anisotropic XC          0.021249962210 Eh    ::
         :: -> dispersion             -0.021566326055 Eh    ::
         :: repulsion energy           0.597389115792 Eh    ::
         :: add. restraining           0.000000000000 Eh    ::
         :: total charge               0.000000000001 e     ::
         :::::::::::::::::::::::::::::::::::::::::::::::::::::


Property printout bound to 'properties.out'

           -------------------------------------------------
          | TOTAL ENERGY              -43.554005329100 Eh   |
          | GRADIENT NORM               0.000210390176 Eh/α |
          | HOMO-LUMO GAP               2.233881964204 eV   |
           -------------------------------------------------

------------------------------------------------------------------------
 * finished run on 2025/01/14 at 21:19:57.073     
------------------------------------------------------------------------
 total:
 * wall-time:     0 d,  0 h,  0 min,  0.695 sec
 *  cpu-time:     0 d,  0 h,  0 min,  1.066 sec
 * ratio c/w:     1.535 speedup
 SCF:
 * wall-time:     0 d,  0 h,  0 min,  0.048 sec
 *  cpu-time:     0 d,  0 h,  0 min,  0.170 sec
 * ratio c/w:     3.584 speedup


-------------------------   --------------------
FINAL SINGLE POINT ENERGY       -43.554005329100
-------------------------   --------------------

                                *** OPTIMIZATION RUN DONE ***

Timings for individual modules:

Sum of individual times         ...      213.675 sec (=   3.561 min)
Geometry relaxation             ...       60.909 sec (=   1.015 min)  28.5 %
XTB module                      ...      152.766 sec (=   2.546 min)  71.5 %
                             ****ORCA TERMINATED NORMALLY****
TOTAL RUN TIME: 0 days 0 hours 13 minutes 34 seconds 873 msec
