
                                 *****************
                                 * O   R   C   A *
                                 *****************

                                            #,                                       
                                            ###                                      
                                            ####                                     
                                            #####                                    
                                            ######                                   
                                           ########,                                 
                                     ,,################,,,,,                         
                               ,,#################################,,                 
                          ,,##########################################,,             
                       ,#########################################, ''#####,          
                    ,#############################################,,   '####,        
                  ,##################################################,,,,####,       
                ,###########''''           ''''###############################       
              ,#####''   ,,,,##########,,,,          '''####'''          '####       
            ,##' ,,,,###########################,,,                        '##       
           ' ,,###''''                  '''############,,,                           
         ,,##''                                '''############,,,,        ,,,,,,###''
      ,#''                                            '''#######################'''  
     '                                                          ''''####''''         
             ,#######,   #######,   ,#######,      ##                                
            ,#'     '#,  ##    ##  ,#'     '#,    #''#        ######   ,####,        
            ##       ##  ##   ,#'  ##            #'  '#       #        #'  '#        
            ##       ##  #######   ##           ,######,      #####,   #    #        
            '#,     ,#'  ##    ##  '#,     ,#' ,#      #,         ##   #,  ,#        
             '#######'   ##     ##  '#######'  #'      '#     #####' # '####'        



                  #######################################################
                  #                        -***-                        #
                  #          Department of theory and spectroscopy      #
                  #    Directorship and core code : Frank Neese         #
                  #        Max Planck Institute fuer Kohlenforschung    #
                  #                Kaiser Wilhelm Platz 1               #
                  #                 D-45470 Muelheim/Ruhr               #
                  #                      Germany                        #
                  #                                                     #
                  #                  All rights reserved                #
                  #                        -***-                        #
                  #######################################################


                         Program Version 5.0.4 -  RELEASE  -


 With contributions from (in alphabetic order):
   Daniel Aravena         : Magnetic Suceptibility
   Michael Atanasov       : Ab Initio Ligand Field Theory (pilot matlab implementation)
   Alexander A. Auer      : GIAO ZORA, VPT2 properties, NMR spectrum
   Ute Becker             : Parallelization
   Giovanni Bistoni       : ED, misc. LED, open-shell LED, HFLD
   Martin Brehm           : Molecular dynamics
   Dmytro Bykov           : SCF Hessian
   Vijay G. Chilkuri      : MRCI spin determinant printing, contributions to CSF-ICE
   Dipayan Datta          : RHF DLPNO-CCSD density
   Achintya Kumar Dutta   : EOM-CC, STEOM-CC
   Dmitry Ganyushin       : Spin-Orbit,Spin-Spin,Magnetic field MRCI
   Miquel Garcia          : C-PCM and meta-GGA Hessian, CC/C-PCM, Gaussian charge scheme
   Yang Guo               : DLPNO-NEVPT2, F12-NEVPT2, CIM, IAO-localization
   Andreas Hansen         : Spin unrestricted coupled pair/coupled cluster methods
   Benjamin Helmich-Paris : MC-RPA, TRAH-SCF, COSX integrals
   Lee Huntington         : MR-EOM, pCC
   Robert Izsak           : Overlap fitted RIJCOSX, COSX-SCS-MP3, EOM
   Marcus Kettner         : VPT2
   Christian Kollmar      : KDIIS, OOCD, Brueckner-CCSD(T), CCSD density, CASPT2, CASPT2-K
   Simone Kossmann        : Meta GGA functionals, TD-DFT gradient, OOMP2, MP2 Hessian
   Martin Krupicka        : Initial AUTO-CI
   Lucas Lang             : DCDCAS
   Marvin Lechner         : AUTO-CI (C++ implementation), FIC-MRCC
   Dagmar Lenk            : GEPOL surface, SMD
   Dimitrios Liakos       : Extrapolation schemes; Compound Job, initial MDCI parallelization
   Dimitrios Manganas     : Further ROCIS development; embedding schemes
   Dimitrios Pantazis     : SARC Basis sets
   Anastasios Papadopoulos: AUTO-CI, single reference methods and gradients
   Taras Petrenko         : DFT Hessian,TD-DFT gradient, ASA, ECA, R-Raman, ABS, FL, XAS/XES, NRVS
   Peter Pinski           : DLPNO-MP2, DLPNO-MP2 Gradient
   Christoph Reimann      : Effective Core Potentials
   Marius Retegan         : Local ZFS, SOC
   Christoph Riplinger    : Optimizer, TS searches, QM/MM, DLPNO-CCSD(T), (RO)-DLPNO pert. Triples
   Tobias Risthaus        : Range-separated hybrids, TD-DFT gradient, RPA, STAB
   Michael Roemelt        : Original ROCIS implementation
   Masaaki Saitow         : Open-shell DLPNO-CCSD energy and density
   Barbara Sandhoefer     : DKH picture change effects
   Avijit Sen             : IP-ROCIS
   Kantharuban Sivalingam : CASSCF convergence, NEVPT2, FIC-MRCI
   Bernardo de Souza      : ESD, SOC TD-DFT
   Georgi Stoychev        : AutoAux, RI-MP2 NMR, DLPNO-MP2 response
   Willem Van den Heuvel  : Paramagnetic NMR
   Boris Wezisla          : Elementary symmetry handling
   Frank Wennmohs         : Technical directorship


 We gratefully acknowledge several colleagues who have allowed us to
 interface, adapt or use parts of their codes:
   Stefan Grimme, W. Hujo, H. Kruse, P. Pracht,  : VdW corrections, initial TS optimization,
                  C. Bannwarth, S. Ehlert          DFT functionals, gCP, sTDA/sTD-DF
   Ed Valeev, F. Pavosevic, A. Kumar             : LibInt (2-el integral package), F12 methods
   Garnet Chan, S. Sharma, J. Yang, R. Olivares  : DMRG
   Ulf Ekstrom                                   : XCFun DFT Library
   Mihaly Kallay                                 : mrcc  (arbitrary order and MRCC methods)
   Jiri Pittner, Ondrej Demel                    : Mk-CCSD
   Frank Weinhold                                : gennbo (NPA and NBO analysis)
   Christopher J. Cramer and Donald G. Truhlar   : smd solvation model
   Lars Goerigk                                  : TD-DFT with DH, B97 family of functionals
   V. Asgeirsson, H. Jonsson                     : NEB implementation
   FAccTs GmbH                                   : IRC, NEB, NEB-TS, DLPNO-Multilevel, CI-OPT
                                                   MM, QMMM, 2- and 3-layer-ONIOM, Crystal-QMMM,
                                                   LR-CPCM, SF, NACMEs, symmetry and pop. for TD-DFT,
                                                   nearIR, NL-DFT gradient (VV10), updates on ESD,
                                                   ML-optimized integration grids
   S Lehtola, MJT Oliveira, MAL Marques          : LibXC Library
   Liviu Ungur et al                             : ANISO software


 Your calculation uses the libint2 library for the computation of 2-el integrals
 For citations please refer to: http://libint.valeyev.net

 Your ORCA version has been built with support for libXC version: 5.1.0
 For citations please refer to: https://tddft.org/programs/libxc/

 This ORCA versions uses:
   CBLAS   interface :  Fast vector & matrix operations
   LAPACKE interface :  Fast linear algebra routines
   SCALAPACK package :  Parallel linear algebra routines
   Shared memory     :  Shared parallel matrices
   BLAS/LAPACK       :  OpenBLAS 0.3.15  USE64BITINT DYNAMIC_ARCH NO_AFFINITY SkylakeX SINGLE_THREADED
        Core in use  :  SkylakeX
   Copyright (c) 2011-2014, The OpenBLAS Project




***************************************
The coordinates will be read from file: mol.xyz
***************************************


Your calculation utilizes the atom-pairwise dispersion correction
with the Becke-Johnson damping scheme (D3BJ)
Cite in your paper:
S.Grimme, S.Ehrlich, L.Goerigk, J Comput Chem, (2011), 32, 1456–1465 
S.Grimme, J.Antony, S.Ehrlich and H.Krieg, J.Chem.Phys., 132, (2010), 154104 
   

Your calculation utilizes the semiempirical GFN2-xTB method
Please cite in your paper:
C. Bannwarth, Ehlert S., S. Grimme,  J. Chem. Theory Comput., 15, (2019), 1652.
   

================================================================================

----- Orbital basis set information -----
Your calculation utilizes the basis: def2-SVP
   F. Weigend and R. Ahlrichs, Phys. Chem. Chem. Phys. 7, 3297 (2005).

----- AuxJ basis set information -----
Your calculation utilizes the auxiliary basis: def2/J
   F. Weigend, Phys. Chem. Chem. Phys. 8, 1057 (2006).

================================================================================
                                        WARNINGS
                       Please study these warnings very carefully!
================================================================================


WARNING: Geometry Optimization
  ===> : Switching off AutoStart
         For restart on a previous wavefunction, please use MOREAD

WARNING: Found dipole moment calculation with XTB calculation
  ===> : Switching off dipole moment calculation


WARNING: TRAH-SCF for XTB is not implemented!
  ===> : Turning TRAH off!

================================================================================
                                       INPUT FILE
================================================================================
NAME = /home/jang/cal_tmp/10_orca/Gen_chromophore/Gen_molecular_pairs_cal/mol_2_1.xyz/input.inp
|  1> ! B3LYP D3BJ def2-SVP TightSCF XTB Opt PAL8
|  2> 
|  3> %geom
|  4>   MaxIter 3000
|  5> end
|  6> 
|  7> * xyzfile 0 1 mol.xyz
|  8> 
|  9> %pal nprocs 4 # any number (positive integer)
| 10> end
| 11> 
| 12>                          ****END OF INPUT****
================================================================================

                       *****************************
                       * Geometry Optimization Run *
                       *****************************

Geometry optimization settings:
Update method            Update   .... BFGS
Choice of coordinates    CoordSys .... Z-matrix Internals
Initial Hessian          InHess   .... Almoef's Model

Convergence Tolerances:
Energy Change            TolE     ....  5.0000e-06 Eh
Max. Gradient            TolMAXG  ....  3.0000e-04 Eh/bohr
RMS Gradient             TolRMSG  ....  1.0000e-04 Eh/bohr
Max. Displacement        TolMAXD  ....  4.0000e-03 bohr
RMS Displacement         TolRMSD  ....  2.0000e-03 bohr
Strict Convergence                ....  False
------------------------------------------------------------------------------
                        ORCA OPTIMIZATION COORDINATE SETUP
------------------------------------------------------------------------------

The optimization will be done in new redundant internal coordinates
Making redundant internal coordinates   ...  (new redundants) done
Evaluating the initial hessian          ...  (Almloef) done
Evaluating the coordinates              ...  done
Calculating the B-matrix                .... done
Calculating the G-matrix                .... done
Diagonalizing the G-matrix              .... done
Small eigenvalue found = 2.587e-02
The first mode is                       ....   71
The number of degrees of freedom        ....   57

    -----------------------------------------------------------------
                    Redundant Internal Coordinates


    -----------------------------------------------------------------
         Definition                    Initial Value    Approx d2E/dq
    -----------------------------------------------------------------
      1. B(C   1,N   0)                  1.1617         1.294464   
      2. B(C   2,C   1)                  1.4203         0.558906   
      3. B(C   3,C   2)                  1.3407         0.748977   
      4. B(C   4,C   3)                  1.4517         0.498162   
      5. B(C   5,C   4)                  1.3886         0.628017   
      6. B(C   6,C   5)                  1.4030         0.595707   
      7. B(C   7,C   6)                  1.4095         0.581595   
      8. B(O   8,C   7)                  1.2731         0.859781   
      9. B(C   9,C   7)                  1.4064         0.588194   
     10. B(C  10,C   9)                  1.3965         0.610165   
     11. B(C  10,C   4)                  1.3862         0.633503   
     12. B(O  11,C  10)                  1.4084         0.522996   
     13. B(C  12,O  11)                  1.3886         0.562544   
     14. B(C  12,C   2)                  1.4794         0.449829   
     15. B(O  13,C  12)                  1.2282         1.014053   
     16. B(H  14,C   3)                  1.0854         0.366227   
     17. B(H  15,C   5)                  1.0846         0.367344   
     18. B(H  16,C   6)                  1.0904         0.359540   
     19. B(H  17,C   9)                  1.0885         0.362113   
     20. B(O  18,O   8)                  4.2266         0.000015   
     21. B(H  19,O  18)                  0.9690         0.503047   
     22. B(H  20,O   8)                  3.4562         0.000054   
     23. B(H  20,C   7)                  4.2411         0.000003   
     24. B(H  20,O  18)                  0.9690         0.503047   
     25. L(N   0,C   1,C   2,C   3, 2) 180.0001         0.483890   
     26. L(N   0,C   1,C   2,C   3, 1) 176.9664         0.483890   
     27. A(C   3,C   2,C  12)          121.5410         0.423919   
     28. A(C   1,C   2,C   3)          120.2626         0.440789   
     29. A(C   1,C   2,C  12)          118.1964         0.402448   
     30. A(C   2,C   3,C   4)          119.9811         0.431746   
     31. A(C   2,C   3,H  14)          122.0778         0.365496   
     32. A(C   4,C   3,H  14)          117.9411         0.341119   
     33. A(C   3,C   4,C  10)          119.2042         0.418999   
     34. A(C   3,C   4,C   5)          122.3290         0.418350   
     35. A(C   5,C   4,C  10)          118.4668         0.436763   
     36. A(C   6,C   5,H  15)          118.6348         0.351714   
     37. A(C   4,C   5,H  15)          121.7345         0.354873   
     38. A(C   4,C   5,C   6)          119.6307         0.431954   
     39. A(C   7,C   6,H  16)          117.8867         0.349025   
     40. A(C   5,C   6,H  16)          118.6857         0.350440   
     41. A(C   5,C   6,C   7)          123.4275         0.426045   
     42. A(O   8,C   7,C   9)          122.6345         0.453147   
     43. A(C   9,C   7,H  20)          103.1152         0.107984   
     44. A(C   6,C   7,C   9)          114.9713         0.425078   
     45. A(C   6,C   7,O   8)          122.3942         0.452218   
     46. A(O   8,C   7,H  20)           44.7974         0.109517   
     47. A(C   6,C   7,H  20)          122.4351         0.107935   
     48. A(O  18,O   8,H  20)            8.8193         0.092152   
     49. A(C   7,O   8,H  20)          120.1597         0.126987   
     50. A(C   7,O   8,O  18)          124.9140         0.121657   
     51. A(C  10,C   9,H  17)          119.4361         0.352287   
     52. A(C   7,C   9,H  17)          118.5678         0.350111   
     53. A(C   7,C   9,C  10)          121.9961         0.428746   
     54. A(C   4,C  10,O  11)          120.7891         0.419908   
     55. A(C   4,C  10,C   9)          121.5076         0.434500   
     56. A(C   9,C  10,O  11)          117.7033         0.417108   
     57. A(C  10,O  11,C  12)          121.3283         0.408478   
     58. A(O  11,C  12,O  13)          121.2293         0.460131   
     59. A(C   2,C  12,O  13)          121.6144         0.444743   
     60. A(C   2,C  12,O  11)          117.1563         0.400326   
     61. A(H  19,O  18,H  20)          103.9780         0.318375   
     62. A(O   8,O  18,H  20)           33.1512         0.113932   
     63. A(O   8,O  18,H  19)          112.0725         0.113932   
     64. A(C   7,H  20,O   8)           15.0429         0.090980   
     65. A(O   8,H  20,O  18)          138.0295         0.118000   
     66. A(C   7,H  20,O  18)          144.8210         0.104663   
     67. D(H  14,C   3,C   2,C   1)      0.0000         0.039995   
     68. D(H  14,C   3,C   2,C  12)   -180.0000         0.039995   
     69. D(C   4,C   3,C   2,C  12)     -0.0000         0.039995   
     70. D(C   4,C   3,C   2,C   1)   -180.0000         0.039995   
     71. D(C   5,C   4,C   3,H  14)     -0.0000         0.016902   
     72. D(C  10,C   4,C   3,C   2)      0.0000         0.016902   
     73. D(C   5,C   4,C   3,C   2)   -180.0000         0.016902   
     74. D(C  10,C   4,C   3,H  14)   -180.0000         0.016902   
     75. D(H  15,C   5,C   4,C   3)      0.0000         0.027335   
     76. D(H  15,C   5,C   4,C  10)   -180.0000         0.027335   
     77. D(C   6,C   5,C   4,C  10)      0.0000         0.027335   
     78. D(C   6,C   5,C   4,C   3)   -180.0000         0.027335   
     79. D(C   7,C   6,C   5,H  15)    180.0000         0.024445   
     80. D(H  16,C   6,C   5,C   4)    179.9999         0.024445   
     81. D(C   7,C   6,C   5,C   4)     -0.0000         0.024445   
     82. D(H  16,C   6,C   5,H  15)     -0.0001         0.024445   
     83. D(H  20,C   7,C   6,H  16)    -53.6642         0.025242   
     84. D(H  20,C   7,C   6,C   5)    126.3357         0.025242   
     85. D(C   9,C   7,C   6,H  16)   -179.9999         0.025242   
     86. D(C   9,C   7,C   6,C   5)      0.0000         0.025242   
     87. D(O   8,C   7,C   6,H  16)      0.0000         0.025242   
     88. D(O   8,C   7,C   6,C   5)   -180.0000         0.025242   
     89. D(H  20,O   8,C   7,C   6)   -105.2189         0.069955   
     90. D(O  18,O   8,C   7,H  20)      8.8191         0.069955   
     91. D(O  18,O   8,C   7,C   9)     83.6003         0.069955   
     92. D(H  20,O   8,C   7,C   9)     74.7811         0.069955   
     93. D(O  18,O   8,C   7,C   6)    -96.3997         0.069955   
     94. D(C  10,C   9,C   7,O   8)   -180.0000         0.025850   
     95. D(C  10,C   9,C   7,H  20)   -135.7251         0.025850   
     96. D(C  10,C   9,C   7,C   6)     -0.0000         0.025850   
     97. D(H  17,C   9,C   7,C   6)    180.0000         0.025850   
     98. D(H  17,C   9,C   7,H  20)     44.2749         0.025850   
     99. D(H  17,C   9,C   7,O   8)      0.0000         0.025850   
    100. D(O  11,C  10,C   9,H  17)     -0.0000         0.025714   
    101. D(O  11,C  10,C   9,C   7)    180.0000         0.025714   
    102. D(C   4,C  10,C   9,H  17)    180.0000         0.025714   
    103. D(C   4,C  10,C   9,C   7)     -0.0000         0.025714   
    104. D(O  11,C  10,C   4,C   5)   -180.0000         0.027846   
    105. D(O  11,C  10,C   4,C   3)     -0.0000         0.027846   
    106. D(C   9,C  10,C   4,C   5)      0.0000         0.027846   
    107. D(C   9,C  10,C   4,C   3)    180.0000         0.027846   
    108. D(C  12,O  11,C  10,C   9)    179.9999         0.019703   
    109. D(C  12,O  11,C  10,C   4)     -0.0001         0.019703   
    110. D(O  13,C  12,O  11,C  10)   -179.9999         0.022938   
    111. D(C   2,C  12,O  11,C  10)      0.0001         0.022938   
    112. D(O  13,C  12,C   2,C   3)    179.9999         0.013793   
    113. D(O  13,C  12,C   2,C   1)     -0.0001         0.013793   
    114. D(O  11,C  12,C   2,C   3)     -0.0001         0.013793   
    115. D(O  11,C  12,C   2,C   1)    179.9999         0.013793   
    116. D(H  20,O  18,O   8,C   7)    -59.8386         0.001500   
    117. D(H  19,O  18,O   8,H  20)     81.7102         0.001500   
    118. D(H  19,O  18,O   8,C   7)     21.8716         0.001500   
    119. D(O   8,H  20,O  18,H  19)   -109.0895         0.352101   
    120. D(C   7,H  20,O  18,O   8)     21.6786         0.352101   
    121. D(C   7,H  20,O  18,H  19)    -87.4108         0.352101   
    122. D(C   7,H  20,O   8,O  18)   -124.9154         0.001500   
    123. D(O  18,H  20,O   8,C   7)    124.9154         0.001500   
    124. D(O   8,H  20,C   7,C   9)   -123.4509         0.001500   
    125. D(O   8,H  20,C   7,C   6)    105.1233         0.001500   
    126. D(O  18,H  20,C   7,C   9)    164.4080         0.001500   
    127. D(O  18,H  20,C   7,O   8)    -72.1410         0.001500   
    128. D(O  18,H  20,C   7,C   6)     32.9822         0.001500   
    -----------------------------------------------------------------

Number of atoms                         .... 21
Number of degrees of freedom            .... 128

         *************************************************************
         *                GEOMETRY OPTIMIZATION CYCLE   1            *
         *************************************************************
---------------------------------
CARTESIAN COORDINATES (ANGSTROEM)
---------------------------------
  N    -0.934059   -4.689148   -0.300813
  C    -0.789539   -3.564798   -0.046780
  C    -0.581237   -2.180989    0.196196
  C     0.000284   -1.411545   -0.735008
  C     0.210207    0.002077   -0.480230
  C     0.807281    0.843489   -1.409606
  C     0.982376    2.201535   -1.103995
  C     0.580879    2.780768    0.116658
  O     0.749466    4.016257    0.373410
  C    -0.018621    1.891869    1.026883
  C    -0.196975    0.538762    0.731304
  O    -0.807834   -0.270072    1.709193
  C    -1.021947   -1.625128    1.494475
  O    -1.554810   -2.328768    2.348498
  H     0.326918   -1.810149   -1.690275
  H     1.145731    0.479864   -2.373731
  H     1.452993    2.848351   -1.845057
  H    -0.351113    2.277625    1.988879
  O     3.997117    5.611912    2.557628
  H     4.762797    5.018032    2.557628
  H     3.235873    5.012355    2.557628

----------------------------
CARTESIAN COORDINATES (A.U.)
----------------------------
  NO LB    ZA    FRAG    MASS        X           Y           Z
   0 N   7.0000    0    14.007   -1.765116   -8.861205   -0.568454
   1 C   6.0000    0    12.011   -1.492013   -6.736492   -0.088402
   2 C   6.0000    0    12.011   -1.098378   -4.121471    0.370756
   3 C   6.0000    0    12.011    0.000537   -2.667433   -1.388963
   4 C   6.0000    0    12.011    0.397233    0.003924   -0.907503
   5 C   6.0000    0    12.011    1.525540    1.593963   -2.663769
   6 C   6.0000    0    12.011    1.856422    4.160299   -2.086247
   7 C   6.0000    0    12.011    1.097703    5.254891    0.220451
   8 O   8.0000    0    15.999    1.416285    7.589625    0.705642
   9 C   6.0000    0    12.011   -0.035189    3.575114    1.940528
  10 C   6.0000    0    12.011   -0.372228    1.018113    1.381964
  11 O   8.0000    0    15.999   -1.526585   -0.510361    3.229906
  12 C   6.0000    0    12.011   -1.931200   -3.071047    2.824148
  13 O   8.0000    0    15.999   -2.938165   -4.400735    4.438018
  14 H   1.0000    0     1.008    0.617786   -3.420685   -3.194156
  15 H   1.0000    0     1.008    2.165118    0.906811   -4.485702
  16 H   1.0000    0     1.008    2.745758    5.382603   -3.486651
  17 H   1.0000    0     1.008   -0.663507    4.304088    3.758436
  18 O   8.0000    0    15.999    7.553456   10.604976    4.833216
  19 H   1.0000    0     1.008    9.000383    9.482706    4.833216
  20 H   1.0000    0     1.008    6.114914    9.471977    4.833216

      -----------------------------------------------------------      
     |                   =====================                   |     
     |                           x T B                           |     
     |                   =====================                   |     
     |                         S. Grimme                         |     
     |          Mulliken Center for Theoretical Chemistry        |     
     |                    University of Bonn                     |     
      -----------------------------------------------------------      

   * xtb version 6.6.1 (8d0f1dd) compiled by 'stahn@M-Bot' on 2023-08-01

   xtb is free software: you can redistribute it and/or modify it under
   the terms of the GNU Lesser General Public License as published by
   the Free Software Foundation, either version 3 of the License, or
   (at your option) any later version.
   
   xtb is distributed in the hope that it will be useful,
   but WITHOUT ANY WARRANTY; without even the implied warranty of
   MERCHANTABILITY or FITNESS FOR A PARTICULAR PURPOSE.  See the
   GNU Lesser General Public License for more details.
   
   Cite this work as:
   * C. Bannwarth, E. Caldeweyher, S. Ehlert, A. Hansen, P. Pracht,
     J. Seibert, S. Spicher, S. Grimme, WIREs Comput. Mol. Sci., 2020, 11,
     e01493. DOI: 10.1002/wcms.1493
   
   for GFN2-xTB:
   * C. Bannwarth, S. Ehlert and S. Grimme., J. Chem. Theory Comput., 2019,
     15, 1652-1671. DOI: 10.1021/acs.jctc.8b01176
   for GFN1-xTB:
   * S. Grimme, C. Bannwarth, P. Shushkov, J. Chem. Theory Comput., 2017,
     13, 1989-2009. DOI: 10.1021/acs.jctc.7b00118
   for GFN0-xTB:
   * P. Pracht, E. Caldeweyher, S. Ehlert, S. Grimme, ChemRxiv, 2019, preprint.
     DOI: 10.26434/chemrxiv.8326202.v1
   for GFN-FF:
   * S. Spicher and S. Grimme, Angew. Chem. Int. Ed., 2020, 59, 15665-15673.
     DOI: 10.1002/anie.202004239
   
   for ALPB and GBSA implicit solvation:
   * S. Ehlert, M. Stahn, S. Spicher, S. Grimme, J. Chem. Theory Comput.,
     2021, 17, 4250-4261. DOI: 10.1021/acs.jctc.1c00471
   
   for DFT-D4:
   * E. Caldeweyher, C. Bannwarth and S. Grimme, J. Chem. Phys., 2017,
     147, 034112. DOI: 10.1063/1.4993215
   * E. Caldeweyher, S. Ehlert, A. Hansen, H. Neugebauer, S. Spicher,
     C. Bannwarth and S. Grimme, J. Chem. Phys., 2019, 150, 154122.
     DOI: 10.1063/1.5090222
   * E. Caldeweyher, J.-M. Mewes, S. Ehlert and S. Grimme, Phys. Chem. Chem. Phys.
     2020, 22, 8499-8512. DOI: 10.1039/D0CP00502A
   
   for sTDA-xTB:
   * S. Grimme and C. Bannwarth, J. Chem. Phys., 2016, 145, 054103.
     DOI: 10.1063/1.4959605
   
   in the mass-spec context:
   * V. Asgeirsson, C. Bauer and S. Grimme, Chem. Sci., 2017, 8, 4879.
     DOI: 10.1039/c7sc00601b
   * J. Koopman and S. Grimme, ACS Omega 2019, 4, 12, 15120-15133.
     DOI: 10.1021/acsomega.9b02011
   
   for metadynamics refer to:
   * S. Grimme, J. Chem. Theory Comput., 2019, 155, 2847-2862
     DOI: 10.1021/acs.jctc.9b00143
   
   for SPH calculations refer to:
   * S. Spicher and S. Grimme, J. Chem. Theory Comput., 2021, 17, 1701-1714
     DOI: 10.1021/acs.jctc.0c01306
   
   with help from (in alphabetical order)
   P. Atkinson, C. Bannwarth, F. Bohle, G. Brandenburg, E. Caldeweyher
   M. Checinski, S. Dohm, S. Ehlert, S. Ehrlich, I. Gerasimov, C. Hölzer
   A. Katbashev, J. Koopman, C. Lavigne, S. Lehtola, F. März, M. Müller,
   F. Musil, H. Neugebauer, J. Pisarek, C. Plett, P. Pracht, F. Pultar,
   J. Seibert, P. Shushkov, S. Spicher, M. Stahn, M. Steiner, T. Strunk,
   J. Stückrath, T. Rose, and J. Unsleber
   
 * started run on 2025/01/14 at 20:48:12.284     

           -------------------------------------------------
          |                Calculation Setup                |
           -------------------------------------------------

          program call               : /home/jang/cal_tmp/10_orca/orca_5_0_4_linux_x86-64_shared_openmpi411/otool_xtb /home/jang/cal_tmp/10_orca/Gen_chromophore/Gen_molecular_pairs_cal/mol_2_1.xyz/input_XTB.xyz --grad -c 0 -u 0 -P 4 --namespace /home/jang/cal_tmp/10_orca/Gen_chromophore/Gen_molecular_pairs_cal/mol_2_1.xyz/input --input /home/jang/cal_tmp/10_orca/Gen_chromophore/Gen_molecular_pairs_cal/mol_2_1.xyz/input_XTB.input.tmp --acc 1.000000
          hostname                   : node02
          calculation namespace      : /home/jang/cal_tmp/10_orca/Gen_chromophore/Gen_molecular_pairs_cal/mol_2_1.xyz/input
          coordinate file            : /home/jang/cal_tmp/10_orca/Gen_chromophore/Gen_molecular_pairs_cal/mol_2_1.xyz/input_XTB.xyz
          omp threads                :                     4

   ID    Z sym.   atoms
    1    7 N      1
    2    6 C      2-8, 10, 11, 13
    3    8 O      9, 12, 14, 19
    4    1 H      15-18, 20, 21

molecular fragmentation (1/2 indicates fragments):
111111111111111111222
# atoms in fragment 1/2:    18     3
 fragment masses (1/2) :      186.14       18.02
CMA distance (Bohr)    :  14.154
constraining FC (au)   :  0.0500

           -------------------------------------------------
          |                 G F N 2 - x T B                 |
           -------------------------------------------------

        Reference                      10.1021/acs.jctc.8b01176
      * Hamiltonian:
        H0-scaling (s, p, d)           1.850000    2.230000    2.230000
        zeta-weighting                 0.500000
      * Dispersion:
        s8                             2.700000
        a1                             0.520000
        a2                             5.000000
        s9                             5.000000
      * Repulsion:
        kExp                           1.500000    1.000000
        rExp                           1.000000
      * Coulomb:
        alpha                          2.000000
        third order                    shell-resolved
        anisotropic                    true
        a3                             3.000000
        a5                             4.000000
        cn-shift                       1.200000
        cn-exp                         4.000000
        max-rad                        5.000000


          ...................................................
          :                      SETUP                      :
          :.................................................:
          :  # basis functions                  66          :
          :  # atomic orbitals                  66          :
          :  # shells                           36          :
          :  # electrons                        75          :
          :  max. iterations                   250          :
          :  Hamiltonian                  GFN2-xTB          :
          :  restarted?                      false          :
          :  GBSA solvation                  false          :
          :  PC potential                    false          :
          :  electronic temp.          300.0000000     K    :
          :  accuracy                    1.0000000          :
          :  -> integral cutoff          0.2500000E+02      :
          :  -> integral neglect         0.1000000E-07      :
          :  -> SCF convergence          0.1000000E-05 Eh   :
          :  -> wf. convergence          0.1000000E-03 e    :
          :  Broyden damping             0.4000000          :
          ...................................................

 iter      E             dE          RMSdq      gap      omega  full diag
   1    -43.9717263 -0.439717E+02  0.629E+00    2.72       0.0  T
   2    -43.9345488  0.371774E-01  0.380E+00    1.62       1.0  T
   3    -43.9236962  0.108527E-01  0.329E+00    2.80       1.0  T
   4    -44.0628766 -0.139180E+00  0.153E+00    2.07       1.0  T
   5    -44.0921834 -0.293069E-01  0.744E-01    2.35       1.0  T
   6    -44.0942074 -0.202395E-02  0.589E-01    2.24       1.0  T
   7    -44.0948575 -0.650110E-03  0.308E-01    2.25       1.0  T
   8    -44.0954232 -0.565675E-03  0.903E-02    2.22       1.0  T
   9    -44.0955754 -0.152251E-03  0.311E-02    2.24       1.0  T
  10    -44.0955846 -0.914893E-05  0.133E-02    2.24       1.6  T
  11    -44.0955866 -0.197928E-05  0.534E-03    2.24       4.1  T
  12    -44.0955869 -0.294486E-06  0.216E-03    2.24      10.1  T
  13    -44.0955869 -0.282969E-07  0.885E-04    2.24      24.7  T
  14    -44.0955869 -0.827640E-10  0.547E-04    2.24      39.9  T

   *** convergence criteria satisfied after 14 iterations ***

         #    Occupation            Energy/Eh            Energy/eV
      -------------------------------------------------------------
         1        2.0000           -0.7882278             -21.4488
       ...           ...                  ...                  ...
        32        2.0000           -0.4808313             -13.0841
        33        2.0000           -0.4671461             -12.7117
        34        2.0000           -0.4613239             -12.5533
        35        2.0000           -0.4544130             -12.3652
        36        2.0000           -0.4411973             -12.0056
        37        1.9941           -0.4363061             -11.8725
        38        1.0059           -0.4265685             -11.6075 (HOMO)
        39                         -0.3443315              -9.3697 (LUMO)
        40                         -0.3003595              -8.1732
        41                         -0.2769974              -7.5375
        42                         -0.2547623              -6.9324
        43                         -0.2481226              -6.7518
       ...                                ...                  ...
        66                          1.0502794              28.5796
      -------------------------------------------------------------
                  HL-Gap            0.0822370 Eh            2.2378 eV
             Fermi-level           -0.4084422 Eh          -11.1143 eV

 SCC (total)                   0 d,  0 h,  0 min,  0.041 sec
 SCC setup                      ...        0 min,  0.001 sec (  1.516%)
 Dispersion                     ...        0 min,  0.001 sec (  2.813%)
 classical contributions        ...        0 min,  0.000 sec (  0.228%)
 integral evaluation            ...        0 min,  0.003 sec (  6.643%)
 iterations                     ...        0 min,  0.032 sec ( 76.599%)
 molecular gradient             ...        0 min,  0.004 sec ( 10.843%)
 printout                       ...        0 min,  0.000 sec (  1.121%)

         :::::::::::::::::::::::::::::::::::::::::::::::::::::
         ::                     SUMMARY                     ::
         :::::::::::::::::::::::::::::::::::::::::::::::::::::
         :: total energy             -43.528891008902 Eh    ::
         :: gradient norm              0.153500138322 Eh/a0 ::
         :: HOMO-LUMO gap              2.237783372234 eV    ::
         ::.................................................::
         :: SCC energy               -44.095586889478 Eh    ::
         :: -> isotropic ES            0.104848819782 Eh    ::
         :: -> anisotropic ES          0.002367299778 Eh    ::
         :: -> anisotropic XC          0.022729120223 Eh    ::
         :: -> dispersion             -0.018911096045 Eh    ::
         :: repulsion energy           0.566726999829 Eh    ::
         :: add. restraining           0.000000000000 Eh    ::
         :: total charge               0.000000000102 e     ::
         :::::::::::::::::::::::::::::::::::::::::::::::::::::


Property printout bound to 'properties.out'

           -------------------------------------------------
          | TOTAL ENERGY              -43.528891008902 Eh   |
          | GRADIENT NORM               0.153500138322 Eh/α |
          | HOMO-LUMO GAP               2.237783372234 eV   |
           -------------------------------------------------

------------------------------------------------------------------------
 * finished run on 2025/01/14 at 20:48:13.845     
------------------------------------------------------------------------
 total:
 * wall-time:     0 d,  0 h,  0 min,  1.560 sec
 *  cpu-time:     0 d,  0 h,  0 min,  1.685 sec
 * ratio c/w:     1.080 speedup
 SCF:
 * wall-time:     0 d,  0 h,  0 min,  0.042 sec
 *  cpu-time:     0 d,  0 h,  0 min,  0.163 sec
 * ratio c/w:     3.921 speedup


-------------------------   --------------------
FINAL SINGLE POINT ENERGY       -43.528891008900
-------------------------   --------------------

------------------------------------------------------------------------------
                         ORCA GEOMETRY RELAXATION STEP
------------------------------------------------------------------------------

Reading the OPT-File                    .... done
Getting information on internals        .... done
Copying old internal coords+grads       .... done
Making the new internal coordinates     .... (new redundants).... done
Validating the new internal coordinates .... (new redundants).... done
Calculating the B-matrix                .... done
Calculating the G,G- and P matrices     .... done
Transforming gradient to internals      .... done
Projecting the internal gradient        .... done
Number of atoms                         ....  21
Number of internal coordinates          .... 128
Current Energy                          ....   -43.528891009 Eh
Current gradient norm                   ....     0.153500138 Eh/bohr
Maximum allowed component of the step   ....  0.300
Current trust radius                    ....  0.300
Evaluating the initial hessian          ....  (Almloef) done
Projecting the Hessian                  .... done
Forming the augmented Hessian           .... done
Diagonalizing the augmented Hessian     .... done
Last element of RFO vector              ....  0.985534041
Lowest eigenvalues of augmented Hessian:
 -0.018016654  0.000316483  0.003692786  0.016527110  0.018371747
Length of the computed step             ....  0.171965236
The final length of the internal step   ....  0.171965236
Converting the step to cartesian space:
 Initial RMS(Int)=    0.0151997231
Transforming coordinates:
 Iter   0:  RMS(Cart)=    0.0376767219 RMS(Int)=    1.7559522917
 Iter   1:  RMS(Cart)=    0.0003178971 RMS(Int)=    0.0001750530
 Iter   2:  RMS(Cart)=    0.0000066405 RMS(Int)=    0.0000041410
 Iter   3:  RMS(Cart)=    0.0000003556 RMS(Int)=    0.0000002181
 Iter   4:  RMS(Cart)=    0.0000001427 RMS(Int)=    0.0000000966
 Iter   5:  RMS(Cart)=    0.0000000700 RMS(Int)=    0.0000000476
done
Storing new coordinates                 .... done

                                .--------------------.
          ----------------------|Geometry convergence|-------------------------
          Item                value                   Tolerance       Converged
          ---------------------------------------------------------------------
          RMS gradient        0.0098108418            0.0001000000      NO
          MAX gradient        0.0456465449            0.0003000000      NO
          RMS step            0.0151997231            0.0020000000      NO
          MAX step            0.0563657022            0.0040000000      NO
          ........................................................
          Max(Bonds)      0.0298      Max(Angles)    1.38
          Max(Dihed)        0.95      Max(Improp)    0.00
          ---------------------------------------------------------------------

The optimization has not yet converged - more geometry cycles are needed


    ---------------------------------------------------------------------------
                         Redundant Internal Coordinates
                            (Angstroem and degrees)

        Definition                    Value    dE/dq     Step     New-Value
    ----------------------------------------------------------------------------
     1. B(C   1,N   0)                1.1617  0.039544 -0.0159    1.1458   
     2. B(C   2,C   1)                1.4203  0.006515 -0.0060    1.4144   
     3. B(C   3,C   2)                1.3407 -0.018681  0.0133    1.3540   
     4. B(C   4,C   3)                1.4517  0.020944 -0.0207    1.4310   
     5. B(C   5,C   4)                1.3886 -0.018140  0.0151    1.4037   
     6. B(C   6,C   5)                1.4030  0.034427 -0.0298    1.3732   
     7. B(C   7,C   6)                1.4095 -0.029026  0.0252    1.4347   
     8. B(O   8,C   7)                1.2731  0.029436 -0.0218    1.2513   
     9. B(C   9,C   7)                1.4064 -0.027587  0.0238    1.4302   
    10. B(C  10,C   9)                1.3965  0.025811 -0.0216    1.3748   
    11. B(C  10,C   4)                1.3862 -0.022812  0.0191    1.4053   
    12. B(O  11,C  10)                1.4084  0.029614 -0.0296    1.3788   
    13. B(C  12,O  11)                1.3886  0.025690 -0.0241    1.3644   
    14. B(C  12,C   2)                1.4794  0.001374 -0.0017    1.4777   
    15. B(O  13,C  12)                1.2282  0.045647 -0.0234    1.2048   
    16. B(H  14,C   3)                1.0854  0.002756 -0.0038    1.0816   
    17. B(H  15,C   5)                1.0846  0.004315 -0.0059    1.0787   
    18. B(H  16,C   6)                1.0904  0.005776 -0.0081    1.0823   
    19. B(H  17,C   9)                1.0885  0.004949 -0.0069    1.0816   
    20. B(O  18,O   8)                4.2266 -0.001793 -0.0006    4.2260   
    21. B(H  19,O  18)                0.9690  0.007278 -0.0074    0.9616   
    22. B(H  20,O   8)                3.4562 -0.005657  0.0010    3.4572   
    23. B(H  20,C   7)                4.2411  0.008363 -0.0089    4.2322   
    24. B(H  20,O  18)                0.9690  0.008324 -0.0070    0.9620   
    25. L(N   0,C   1,C   2,C   3, 2) 180.00 -0.000013    0.00    180.00   
    26. L(N   0,C   1,C   2,C   3, 1) 176.97 -0.000677    0.08    177.04   
    27. A(C   3,C   2,C  12)          121.54  0.000962   -0.02    121.52   
    28. A(C   1,C   2,C   3)          120.26 -0.003455    0.40    120.66   
    29. A(C   1,C   2,C  12)          118.20  0.002492   -0.37    117.82   
    30. A(C   2,C   3,C   4)          119.98  0.004977   -0.46    119.52   
    31. A(C   2,C   3,H  14)          122.08 -0.001847    0.12    122.20   
    32. A(C   4,C   3,H  14)          117.94 -0.003130    0.34    118.28   
    33. A(C   3,C   4,C  10)          119.20  0.006234   -0.70    118.51   
    34. A(C   3,C   4,C   5)          122.33 -0.001648    0.12    122.45   
    35. A(C   5,C   4,C  10)          118.47 -0.004586    0.58    119.05   
    36. A(C   6,C   5,H  15)          118.63 -0.001346    0.24    118.88   
    37. A(C   4,C   5,H  15)          121.73  0.003958   -0.57    121.16   
    38. A(C   4,C   5,C   6)          119.63 -0.002612    0.33    119.96   
    39. A(C   7,C   6,H  16)          117.89 -0.002368    0.39    118.27   
    40. A(C   5,C   6,H  16)          118.69 -0.003453    0.55    119.24   
    41. A(C   5,C   6,C   7)          123.43  0.005821   -0.94    122.49   
    42. A(O   8,C   7,C   9)          122.63  0.003583   -0.59    122.05   
    43. A(C   9,C   7,H  20)          103.12  0.002521   -0.35    102.76   
    44. A(C   6,C   7,C   9)          114.97 -0.006372    1.10    116.07   
    45. A(C   6,C   7,O   8)          122.39  0.002789   -0.51    121.88   
    46. A(O   8,C   7,H  20)           44.80  0.000507   -0.07     44.73   
    47. A(C   6,C   7,H  20)          122.44  0.001887   -0.28    122.15   
    48. A(O  18,O   8,H  20)            8.82  0.001287   -0.14      8.68   
    49. A(C   7,O   8,H  20)          120.16 -0.004166    0.35    120.51   
    50. A(C   7,O   8,O  18)          124.91 -0.003224    0.22    125.13   
    51. A(C  10,C   9,H  17)          119.44 -0.001440    0.20    119.64   
    52. A(C   7,C   9,H  17)          118.57 -0.004849    0.73    119.30   
    53. A(C   7,C   9,C  10)          122.00  0.006289   -0.94    121.06   
    54. A(C   4,C  10,O  11)          120.79 -0.005720    0.69    121.48   
    55. A(C   4,C  10,C   9)          121.51  0.001460   -0.13    121.38   
    56. A(C   9,C  10,O  11)          117.70  0.004260   -0.56    117.14   
    57. A(C  10,O  11,C  12)          121.33 -0.005240    0.45    121.78   
    58. A(O  11,C  12,O  13)          121.23  0.011822   -1.38    119.84   
    59. A(C   2,C  12,O  13)          121.61 -0.010609    1.35    122.96   
    60. A(C   2,C  12,O  11)          117.16 -0.001213    0.04    117.19   
    61. A(H  19,O  18,H  20)          103.98 -0.003541    0.95    104.93   
    62. A(O   8,O  18,H  20)           33.15  0.001881   -0.31     32.84   
    63. A(O   8,O  18,H  19)          112.07 -0.001958    0.67    112.74   
    64. A(C   7,H  20,O   8)           15.04  0.003658   -0.29     14.76   
    65. A(O   8,H  20,O  18)          138.03 -0.003168    0.46    138.49   
    66. A(C   7,H  20,O  18)          144.82 -0.001362    0.22    145.04   
    67. D(H  14,C   3,C   2,C   1)      0.00 -0.000014    0.02      0.02   
    68. D(H  14,C   3,C   2,C  12)   -180.00  0.000015    0.00   -180.00   
    69. D(C   4,C   3,C   2,C  12)     -0.00  0.000005    0.00      0.00   
    70. D(C   4,C   3,C   2,C   1)   -180.00 -0.000023    0.02   -179.98   
    71. D(C   5,C   4,C   3,H  14)     -0.00  0.000019    0.01      0.01   
    72. D(C  10,C   4,C   3,C   2)      0.00  0.000024   -0.02     -0.02   
    73. D(C   5,C   4,C   3,C   2)   -180.00  0.000028    0.01   -179.99   
    74. D(C  10,C   4,C   3,H  14)   -180.00  0.000015   -0.02   -180.02   
    75. D(H  15,C   5,C   4,C   3)      0.00 -0.000032    0.02      0.02   
    76. D(H  15,C   5,C   4,C  10)   -180.00 -0.000028    0.05   -179.95   
    77. D(C   6,C   5,C   4,C  10)      0.00  0.000070   -0.02     -0.02   
    78. D(C   6,C   5,C   4,C   3)   -180.00  0.000066   -0.05   -180.05   
    79. D(C   7,C   6,C   5,H  15)    180.00  0.000034   -0.00    180.00   
    80. D(H  16,C   6,C   5,C   4)    180.00 -0.000150    0.10    180.10   
    81. D(C   7,C   6,C   5,C   4)     -0.00 -0.000062    0.07      0.07   
    82. D(H  16,C   6,C   5,H  15)     -0.00 -0.000054    0.03      0.03   
    83. D(H  20,C   7,C   6,H  16)    -53.66 -0.001190    0.28    -53.38   
    84. D(H  20,C   7,C   6,C   5)    126.34 -0.001277    0.32    126.65   
    85. D(C   9,C   7,C   6,H  16)   -180.00  0.000063   -0.11   -180.11   
    86. D(C   9,C   7,C   6,C   5)      0.00 -0.000024   -0.08     -0.08   
    87. D(O   8,C   7,C   6,H  16)      0.00  0.000935   -0.06     -0.06   
    88. D(O   8,C   7,C   6,C   5)   -180.00  0.000848   -0.02   -180.02   
    89. D(H  20,O   8,C   7,C   6)   -105.22 -0.000540   -0.00   -105.22   
    90. D(O  18,O   8,C   7,H  20)      8.82  0.000736   -0.07      8.75   
    91. D(O  18,O   8,C   7,C   9)     83.60  0.001135   -0.01     83.59   
    92. D(H  20,O   8,C   7,C   9)     74.78  0.000399    0.06     74.84   
    93. D(O  18,O   8,C   7,C   6)    -96.40  0.000196   -0.07    -96.47   
    94. D(C  10,C   9,C   7,O   8)   -180.00 -0.000773   -0.00   -180.00   
    95. D(C  10,C   9,C   7,H  20)   -135.73  0.000404   -0.14   -135.86   
    96. D(C  10,C   9,C   7,C   6)     -0.00  0.000101    0.05      0.05   
    97. D(H  17,C   9,C   7,C   6)    180.00  0.000061    0.15    180.15   
    98. D(H  17,C   9,C   7,H  20)     44.27  0.000364   -0.04     44.24   
    99. D(H  17,C   9,C   7,O   8)      0.00 -0.000813    0.09      0.09   
   100. D(O  11,C  10,C   9,H  17)     -0.00  0.000005   -0.13     -0.13   
   101. D(O  11,C  10,C   9,C   7)    180.00 -0.000035   -0.03    179.97   
   102. D(C   4,C  10,C   9,H  17)    180.00 -0.000055   -0.11    179.89   
   103. D(C   4,C  10,C   9,C   7)     -0.00 -0.000096   -0.02     -0.02   
   104. D(O  11,C  10,C   4,C   5)   -180.00 -0.000057    0.01   -179.99   
   105. D(O  11,C  10,C   4,C   3)     -0.00 -0.000053    0.04      0.04   
   106. D(C   9,C  10,C   4,C   5)      0.00  0.000005   -0.00     -0.00   
   107. D(C   9,C  10,C   4,C   3)    180.00  0.000009    0.03    180.03   
   108. D(C  12,O  11,C  10,C   9)    180.00 -0.000006   -0.03    179.97   
   109. D(C  12,O  11,C  10,C   4)     -0.00  0.000054   -0.04     -0.04   
   110. D(O  13,C  12,O  11,C  10)   -180.00  0.000031   -0.06   -180.06   
   111. D(C   2,C  12,O  11,C  10)      0.00 -0.000023    0.02      0.02   
   112. D(O  13,C  12,C   2,C   3)    180.00 -0.000061    0.08    180.08   
   113. D(O  13,C  12,C   2,C   1)     -0.00 -0.000033    0.06      0.06   
   114. D(O  11,C  12,C   2,C   3)     -0.00 -0.000006   -0.00     -0.00   
   115. D(O  11,C  12,C   2,C   1)    180.00  0.000022   -0.02    179.98   
   116. D(H  20,O  18,O   8,C   7)    -59.84  0.001941   -0.47    -60.31   
   117. D(H  19,O  18,O   8,H  20)     81.71 -0.002515    0.57     82.28   
   118. D(H  19,O  18,O   8,C   7)     21.87 -0.000574    0.10     21.97   
   119. D(O   8,H  20,O  18,H  19)   -109.09 -0.001311    0.14   -108.95   
   120. D(C   7,H  20,O  18,O   8)     21.68  0.004127   -0.17     21.51   
   121. D(C   7,H  20,O  18,H  19)    -87.41  0.002816   -0.03    -87.44   
   122. D(C   7,H  20,O   8,O  18)   -124.92 -0.001860    0.47   -124.44   
   123. D(O  18,H  20,O   8,C   7)    124.92  0.001860   -0.47    124.44   
   124. D(O   8,H  20,C   7,C   9)   -123.45 -0.002420    0.47   -122.98   
   125. D(O   8,H  20,C   7,C   6)    105.12  0.002653   -0.53    104.59   
   126. D(O  18,H  20,C   7,C   9)    164.41 -0.003322    0.05    164.46   
   127. D(O  18,H  20,C   7,O   8)    -72.14 -0.000902   -0.42    -72.56   
   128. D(O  18,H  20,C   7,C   6)     32.98  0.001751   -0.95     32.03   
    ----------------------------------------------------------------------------

         *************************************************************
         *                GEOMETRY OPTIMIZATION CYCLE   2            *
         *************************************************************
---------------------------------
CARTESIAN COORDINATES (ANGSTROEM)
---------------------------------
  N    -0.937036   -4.652289   -0.262730
  C    -0.787955   -3.541056   -0.026663
  C    -0.573570   -2.161349    0.198868
  C     0.010951   -1.389613   -0.747692
  C     0.216592    0.003532   -0.493540
  C     0.816068    0.859529   -1.430805
  C     0.987583    2.189152   -1.133827
  C     0.575702    2.758588    0.116889
  O     0.737841    3.972040    0.375954
  C    -0.031382    1.858362    1.047753
  C    -0.199636    0.528583    0.741803
  O    -0.793640   -0.266713    1.698822
  C    -1.007058   -1.598804    1.494733
  O    -1.528115   -2.261353    2.355544
  H     0.332423   -1.789680   -1.699789
  H     1.147476    0.492941   -2.389592
  H     1.449622    2.839039   -1.865674
  H    -0.363887    2.232884    2.006408
  O     3.976539    5.580117    2.563119
  H     4.746285    5.003771    2.565366
  H     3.220983    4.984618    2.557935

----------------------------
CARTESIAN COORDINATES (A.U.)
----------------------------
  NO LB    ZA    FRAG    MASS        X           Y           Z
   0 N   7.0000    0    14.007   -1.770741   -8.791552   -0.496487
   1 C   6.0000    0    12.011   -1.489019   -6.691626   -0.050386
   2 C   6.0000    0    12.011   -1.083890   -4.084358    0.375807
   3 C   6.0000    0    12.011    0.020695   -2.625988   -1.412933
   4 C   6.0000    0    12.011    0.409300    0.006674   -0.932656
   5 C   6.0000    0    12.011    1.542145    1.624274   -2.703830
   6 C   6.0000    0    12.011    1.866262    4.136899   -2.142622
   7 C   6.0000    0    12.011    1.087920    5.212977    0.220888
   8 O   8.0000    0    15.999    1.394318    7.506067    0.710451
   9 C   6.0000    0    12.011   -0.059304    3.511794    1.979967
  10 C   6.0000    0    12.011   -0.377257    0.998877    1.401804
  11 O   8.0000    0    15.999   -1.499762   -0.504014    3.210308
  12 C   6.0000    0    12.011   -1.903063   -3.021302    2.824637
  13 O   8.0000    0    15.999   -2.887719   -4.273337    4.451333
  14 H   1.0000    0     1.008    0.628188   -3.382004   -3.212136
  15 H   1.0000    0     1.008    2.168415    0.931523   -4.515675
  16 H   1.0000    0     1.008    2.739389    5.365007   -3.525613
  17 H   1.0000    0     1.008   -0.687647    4.219539    3.791561
  18 O   8.0000    0    15.999    7.514570   10.544892    4.843593
  19 H   1.0000    0     1.008    8.969180    9.455756    4.847838
  20 H   1.0000    0     1.008    6.086776    9.419563    4.833797

      -----------------------------------------------------------      
     |                   =====================                   |     
     |                           x T B                           |     
     |                   =====================                   |     
     |                         S. Grimme                         |     
     |          Mulliken Center for Theoretical Chemistry        |     
     |                    University of Bonn                     |     
      -----------------------------------------------------------      

   * xtb version 6.6.1 (8d0f1dd) compiled by 'stahn@M-Bot' on 2023-08-01

   xtb is free software: you can redistribute it and/or modify it under
   the terms of the GNU Lesser General Public License as published by
   the Free Software Foundation, either version 3 of the License, or
   (at your option) any later version.
   
   xtb is distributed in the hope that it will be useful,
   but WITHOUT ANY WARRANTY; without even the implied warranty of
   MERCHANTABILITY or FITNESS FOR A PARTICULAR PURPOSE.  See the
   GNU Lesser General Public License for more details.
   
   Cite this work as:
   * C. Bannwarth, E. Caldeweyher, S. Ehlert, A. Hansen, P. Pracht,
     J. Seibert, S. Spicher, S. Grimme, WIREs Comput. Mol. Sci., 2020, 11,
     e01493. DOI: 10.1002/wcms.1493
   
   for GFN2-xTB:
   * C. Bannwarth, S. Ehlert and S. Grimme., J. Chem. Theory Comput., 2019,
     15, 1652-1671. DOI: 10.1021/acs.jctc.8b01176
   for GFN1-xTB:
   * S. Grimme, C. Bannwarth, P. Shushkov, J. Chem. Theory Comput., 2017,
     13, 1989-2009. DOI: 10.1021/acs.jctc.7b00118
   for GFN0-xTB:
   * P. Pracht, E. Caldeweyher, S. Ehlert, S. Grimme, ChemRxiv, 2019, preprint.
     DOI: 10.26434/chemrxiv.8326202.v1
   for GFN-FF:
   * S. Spicher and S. Grimme, Angew. Chem. Int. Ed., 2020, 59, 15665-15673.
     DOI: 10.1002/anie.202004239
   
   for ALPB and GBSA implicit solvation:
   * S. Ehlert, M. Stahn, S. Spicher, S. Grimme, J. Chem. Theory Comput.,
     2021, 17, 4250-4261. DOI: 10.1021/acs.jctc.1c00471
   
   for DFT-D4:
   * E. Caldeweyher, C. Bannwarth and S. Grimme, J. Chem. Phys., 2017,
     147, 034112. DOI: 10.1063/1.4993215
   * E. Caldeweyher, S. Ehlert, A. Hansen, H. Neugebauer, S. Spicher,
     C. Bannwarth and S. Grimme, J. Chem. Phys., 2019, 150, 154122.
     DOI: 10.1063/1.5090222
   * E. Caldeweyher, J.-M. Mewes, S. Ehlert and S. Grimme, Phys. Chem. Chem. Phys.
     2020, 22, 8499-8512. DOI: 10.1039/D0CP00502A
   
   for sTDA-xTB:
   * S. Grimme and C. Bannwarth, J. Chem. Phys., 2016, 145, 054103.
     DOI: 10.1063/1.4959605
   
   in the mass-spec context:
   * V. Asgeirsson, C. Bauer and S. Grimme, Chem. Sci., 2017, 8, 4879.
     DOI: 10.1039/c7sc00601b
   * J. Koopman and S. Grimme, ACS Omega 2019, 4, 12, 15120-15133.
     DOI: 10.1021/acsomega.9b02011
   
   for metadynamics refer to:
   * S. Grimme, J. Chem. Theory Comput., 2019, 155, 2847-2862
     DOI: 10.1021/acs.jctc.9b00143
   
   for SPH calculations refer to:
   * S. Spicher and S. Grimme, J. Chem. Theory Comput., 2021, 17, 1701-1714
     DOI: 10.1021/acs.jctc.0c01306
   
   with help from (in alphabetical order)
   P. Atkinson, C. Bannwarth, F. Bohle, G. Brandenburg, E. Caldeweyher
   M. Checinski, S. Dohm, S. Ehlert, S. Ehrlich, I. Gerasimov, C. Hölzer
   A. Katbashev, J. Koopman, C. Lavigne, S. Lehtola, F. März, M. Müller,
   F. Musil, H. Neugebauer, J. Pisarek, C. Plett, P. Pracht, F. Pultar,
   J. Seibert, P. Shushkov, S. Spicher, M. Stahn, M. Steiner, T. Strunk,
   J. Stückrath, T. Rose, and J. Unsleber
   
 * started run on 2025/01/14 at 20:48:27.036     

           -------------------------------------------------
          |                Calculation Setup                |
           -------------------------------------------------

          program call               : /home/jang/cal_tmp/10_orca/orca_5_0_4_linux_x86-64_shared_openmpi411/otool_xtb /home/jang/cal_tmp/10_orca/Gen_chromophore/Gen_molecular_pairs_cal/mol_2_1.xyz/input_XTB.xyz --grad -c 0 -u 0 -P 4 --namespace /home/jang/cal_tmp/10_orca/Gen_chromophore/Gen_molecular_pairs_cal/mol_2_1.xyz/input --input /home/jang/cal_tmp/10_orca/Gen_chromophore/Gen_molecular_pairs_cal/mol_2_1.xyz/input_XTB.input.tmp --acc 1.000000
          hostname                   : node02
          calculation namespace      : /home/jang/cal_tmp/10_orca/Gen_chromophore/Gen_molecular_pairs_cal/mol_2_1.xyz/input
          coordinate file            : /home/jang/cal_tmp/10_orca/Gen_chromophore/Gen_molecular_pairs_cal/mol_2_1.xyz/input_XTB.xyz
          omp threads                :                     4

   ID    Z sym.   atoms
    1    7 N      1
    2    6 C      2-8, 10, 11, 13
    3    8 O      9, 12, 14, 19
    4    1 H      15-18, 20, 21

molecular fragmentation (1/2 indicates fragments):
111111111111111111222
# atoms in fragment 1/2:    18     3
 fragment masses (1/2) :      186.14       18.02
CMA distance (Bohr)    :  14.076
constraining FC (au)   :  0.0500

           -------------------------------------------------
          |                 G F N 2 - x T B                 |
           -------------------------------------------------

        Reference                      10.1021/acs.jctc.8b01176
      * Hamiltonian:
        H0-scaling (s, p, d)           1.850000    2.230000    2.230000
        zeta-weighting                 0.500000
      * Dispersion:
        s8                             2.700000
        a1                             0.520000
        a2                             5.000000
        s9                             5.000000
      * Repulsion:
        kExp                           1.500000    1.000000
        rExp                           1.000000
      * Coulomb:
        alpha                          2.000000
        third order                    shell-resolved
        anisotropic                    true
        a3                             3.000000
        a5                             4.000000
        cn-shift                       1.200000
        cn-exp                         4.000000
        max-rad                        5.000000

q/qsh data taken from xtbrestart
CAMM data taken from xtbrestart

          ...................................................
          :                      SETUP                      :
          :.................................................:
          :  # basis functions                  66          :
          :  # atomic orbitals                  66          :
          :  # shells                           36          :
          :  # electrons                        75          :
          :  max. iterations                   250          :
          :  Hamiltonian                  GFN2-xTB          :
          :  restarted?                       true          :
          :  GBSA solvation                  false          :
          :  PC potential                    false          :
          :  electronic temp.          300.0000000     K    :
          :  accuracy                    1.0000000          :
          :  -> integral cutoff          0.2500000E+02      :
          :  -> integral neglect         0.1000000E-07      :
          :  -> SCF convergence          0.1000000E-05 Eh   :
          :  -> wf. convergence          0.1000000E-03 e    :
          :  Broyden damping             0.4000000          :
          ...................................................

 iter      E             dE          RMSdq      gap      omega  full diag
   1    -44.1342045 -0.441342E+02  0.281E-01    2.24       0.0  T
   2    -44.1345077 -0.303281E-03  0.178E-01    2.24       1.0  T
   3    -44.1345570 -0.492553E-04  0.996E-02    2.24       1.0  T
   4    -44.1345787 -0.216943E-04  0.300E-02    2.24       1.0  T
   5    -44.1345930 -0.143112E-04  0.109E-02    2.24       2.0  T
   6    -44.1345951 -0.206965E-05  0.467E-03    2.24       4.7  T
   7    -44.1345952 -0.171472E-06  0.279E-03    2.24       7.8  T
   8    -44.1345953 -0.588390E-07  0.127E-03    2.24      17.1  T
   9    -44.1345953 -0.184176E-07  0.485E-04    2.24      45.0  T
  10    -44.1345953 -0.306822E-08  0.221E-04    2.24      98.8  T

   *** convergence criteria satisfied after 10 iterations ***

         #    Occupation            Energy/Eh            Energy/eV
      -------------------------------------------------------------
         1        2.0000           -0.7953798             -21.6434
       ...           ...                  ...                  ...
        32        2.0000           -0.4804584             -13.0739
        33        2.0000           -0.4655331             -12.6678
        34        2.0000           -0.4618749             -12.5683
        35        2.0000           -0.4528003             -12.3213
        36        2.0000           -0.4412341             -12.0066
        37        1.9972           -0.4338758             -11.8064
        38        1.0028           -0.4226843             -11.5018 (HOMO)
        39                         -0.3404023              -9.2628 (LUMO)
        40                         -0.2934392              -7.9849
        41                         -0.2690232              -7.3205
        42                         -0.2463701              -6.7041
        43                         -0.2447356              -6.6596
       ...                                ...                  ...
        66                          1.1320794              30.8054
      -------------------------------------------------------------
                  HL-Gap            0.0822820 Eh            2.2390 eV
             Fermi-level           -0.4049116 Eh          -11.0182 eV

 SCC (total)                   0 d,  0 h,  0 min,  0.050 sec
 SCC setup                      ...        0 min,  0.000 sec (  0.532%)
 Dispersion                     ...        0 min,  0.000 sec (  0.558%)
 classical contributions        ...        0 min,  0.000 sec (  0.129%)
 integral evaluation            ...        0 min,  0.002 sec (  4.794%)
 iterations                     ...        0 min,  0.040 sec ( 81.330%)
 molecular gradient             ...        0 min,  0.006 sec ( 11.370%)
 printout                       ...        0 min,  0.001 sec (  1.117%)

         :::::::::::::::::::::::::::::::::::::::::::::::::::::
         ::                     SUMMARY                     ::
         :::::::::::::::::::::::::::::::::::::::::::::::::::::
         :: total energy             -43.541122623700 Eh    ::
         :: gradient norm              0.069464589795 Eh/a0 ::
         :: HOMO-LUMO gap              2.239007995842 eV    ::
         ::.................................................::
         :: SCC energy               -44.134595313758 Eh    ::
         :: -> isotropic ES            0.103374207191 Eh    ::
         :: -> anisotropic ES          0.002445526839 Eh    ::
         :: -> anisotropic XC          0.021735580020 Eh    ::
         :: -> dispersion             -0.019025450651 Eh    ::
         :: repulsion energy           0.593499629962 Eh    ::
         :: add. restraining           0.000000000000 Eh    ::
         :: total charge              -0.000000000000 e     ::
         :::::::::::::::::::::::::::::::::::::::::::::::::::::


Property printout bound to 'properties.out'

           -------------------------------------------------
          | TOTAL ENERGY              -43.541122623700 Eh   |
          | GRADIENT NORM               0.069464589795 Eh/α |
          | HOMO-LUMO GAP               2.239007995842 eV   |
           -------------------------------------------------

------------------------------------------------------------------------
 * finished run on 2025/01/14 at 20:48:27.195     
------------------------------------------------------------------------
 total:
 * wall-time:     0 d,  0 h,  0 min,  0.158 sec
 *  cpu-time:     0 d,  0 h,  0 min,  0.472 sec
 * ratio c/w:     2.984 speedup
 SCF:
 * wall-time:     0 d,  0 h,  0 min,  0.050 sec
 *  cpu-time:     0 d,  0 h,  0 min,  0.185 sec
 * ratio c/w:     3.696 speedup


-------------------------   --------------------
FINAL SINGLE POINT ENERGY       -43.541122623700
-------------------------   --------------------

------------------------------------------------------------------------------
                         ORCA GEOMETRY RELAXATION STEP
------------------------------------------------------------------------------

Reading the OPT-File                    .... done
Getting information on internals        .... done
Copying old internal coords+grads       .... done
Making the new internal coordinates     .... (new redundants).... done
Validating the new internal coordinates .... (new redundants).... done
Calculating the B-matrix                .... done
Calculating the G,G- and P matrices     .... done
Transforming gradient to internals      .... done
Projecting the internal gradient        .... done
Number of atoms                         ....  21
Number of internal coordinates          .... 128
Current Energy                          ....   -43.541122624 Eh
Current gradient norm                   ....     0.069464590 Eh/bohr
Maximum allowed component of the step   ....  0.300
Current trust radius                    ....  0.300
Updating the Hessian (BFGS)             .... done
Forming the augmented Hessian           .... done
Diagonalizing the augmented Hessian     .... done
Last element of RFO vector              ....  0.991915035
Lowest eigenvalues of augmented Hessian:
 -0.004887805  0.000317083  0.003694120  0.016527206  0.018371815
Length of the computed step             ....  0.127938134
The final length of the internal step   ....  0.127938134
Converting the step to cartesian space:
 Initial RMS(Int)=    0.0113082403
Transforming coordinates:
 Iter   0:  RMS(Cart)=    0.0180150821 RMS(Int)=    0.9618967949
 Iter   1:  RMS(Cart)=    0.0001472154 RMS(Int)=    0.0000950937
 Iter   2:  RMS(Cart)=    0.0000028923 RMS(Int)=    0.0000014201
 Iter   3:  RMS(Cart)=    0.0000004863 RMS(Int)=    0.0000003308
 Iter   4:  RMS(Cart)=    0.0000002388 RMS(Int)=    0.0000001635
 Iter   5:  RMS(Cart)=    0.0000001185 RMS(Int)=    0.0000000811
 Iter   6:  RMS(Cart)=    0.0000000588 RMS(Int)=    0.0000000403
done
Storing new coordinates                 .... done

                                .--------------------.
          ----------------------|Geometry convergence|-------------------------
          Item                value                   Tolerance       Converged
          ---------------------------------------------------------------------
          Energy change      -0.0122316148            0.0000050000      NO
          RMS gradient        0.0036315925            0.0001000000      NO
          MAX gradient        0.0161951011            0.0003000000      NO
          RMS step            0.0113082403            0.0020000000      NO
          MAX step            0.0394723901            0.0040000000      NO
          ........................................................
          Max(Bonds)      0.0209      Max(Angles)    1.29
          Max(Dihed)        0.99      Max(Improp)    0.00
          ---------------------------------------------------------------------

The optimization has not yet converged - more geometry cycles are needed


    ---------------------------------------------------------------------------
                         Redundant Internal Coordinates
                            (Angstroem and degrees)

        Definition                    Value    dE/dq     Step     New-Value
    ----------------------------------------------------------------------------
     1. B(C   1,N   0)                1.1458  0.000260 -0.0014    1.1444   
     2. B(C   2,C   1)                1.4144  0.002181 -0.0035    1.4108   
     3. B(C   3,C   2)                1.3540 -0.009873  0.0118    1.3658   
     4. B(C   4,C   3)                1.4310  0.010128 -0.0172    1.4138   
     5. B(C   5,C   4)                1.4038 -0.008680  0.0122    1.4159   
     6. B(C   6,C   5)                1.3731  0.011974 -0.0183    1.3548   
     7. B(C   7,C   6)                1.4346 -0.013571  0.0203    1.4549   
     8. B(O   8,C   7)                1.2513  0.016195 -0.0204    1.2309   
     9. B(C   9,C   7)                1.4302 -0.012506  0.0187    1.4489   
    10. B(C  10,C   9)                1.3749  0.005455 -0.0085    1.3663   
    11. B(C  10,C   4)                1.4053 -0.010833  0.0152    1.4206   
    12. B(O  11,C  10)                1.3788  0.012090 -0.0209    1.3580   
    13. B(C  12,O  11)                1.3644  0.005166 -0.0094    1.3550   
    14. B(C  12,C   2)                1.4777 -0.000657  0.0011    1.4788   
    15. B(O  13,C  12)                1.2048  0.008508 -0.0085    1.1962   
    16. B(H  14,C   3)                1.0816  0.000435 -0.0012    1.0804   
    17. B(H  15,C   5)                1.0787 -0.000099 -0.0001    1.0785   
    18. B(H  16,C   6)                1.0823  0.001441 -0.0037    1.0787   
    19. B(H  17,C   9)                1.0816  0.001522 -0.0038    1.0778   
    20. B(O  18,O   8)                4.2260 -0.001819 -0.0020    4.2240   
    21. B(H  19,O  18)                0.9616  0.001221 -0.0024    0.9592   
    22. B(H  20,O   8)                3.4572 -0.002361 -0.0052    3.4520   
    23. B(H  20,C   7)                4.2322  0.004781 -0.0119    4.2203   
    24. B(H  20,O  18)                0.9620  0.002731 -0.0024    0.9597   
    25. L(N   0,C   1,C   2,C   3, 2) 180.00 -0.000013    0.00    180.00   
    26. L(N   0,C   1,C   2,C   3, 1) 177.04 -0.001151    0.21    177.25   
    27. A(C   3,C   2,C  12)          121.52  0.000760   -0.08    121.43   
    28. A(C   1,C   2,C   3)          120.66 -0.001923    0.38    121.04   
    29. A(C   1,C   2,C  12)          117.82  0.001164   -0.30    117.52   
    30. A(C   2,C   3,C   4)          119.52  0.000364    0.01    119.53   
    31. A(C   2,C   3,H  14)          122.20  0.001496   -0.42    121.78   
    32. A(C   4,C   3,H  14)          118.28 -0.001860    0.41    118.69   
    33. A(C   3,C   4,C  10)          118.51  0.001621   -0.32    118.19   
    34. A(C   3,C   4,C   5)          122.44 -0.001273    0.24    122.68   
    35. A(C   5,C   4,C  10)          119.05 -0.000348    0.08    119.13   
    36. A(C   6,C   5,H  15)          118.88 -0.002338    0.66    119.53   
    37. A(C   4,C   5,H  15)          121.16  0.005421   -1.29    119.88   
    38. A(C   4,C   5,C   6)          119.96 -0.003083    0.63    120.59   
    39. A(C   7,C   6,H  16)          118.28  0.001372   -0.31    117.96   
    40. A(C   5,C   6,H  16)          119.24 -0.003709    0.95    120.19   
    41. A(C   5,C   6,C   7)          122.48  0.002336   -0.64    121.84   
    42. A(O   8,C   7,C   9)          122.05  0.000653   -0.21    121.84   
    43. A(C   9,C   7,H  20)          102.77  0.000265   -0.07    102.70   
    44. A(C   6,C   7,C   9)          116.07 -0.001209    0.43    116.50   
    45. A(C   6,C   7,O   8)          121.88  0.000555   -0.22    121.67   
    46. A(O   8,C   7,H  20)           44.73  0.000608   -0.21     44.52   
    47. A(C   6,C   7,H  20)          122.15  0.000309   -0.09    122.06   
    48. A(O  18,O   8,H  20)            8.68  0.000575   -0.11      8.56   
    49. A(C   7,O   8,H  20)          120.51 -0.002669    0.49    121.00   
    50. A(C   7,O   8,O  18)          125.13 -0.002215    0.34    125.47   
    51. A(C  10,C   9,H  17)          119.64 -0.001137    0.27    119.91   
    52. A(C   7,C   9,H  17)          119.30 -0.000257    0.09    119.39   
    53. A(C   7,C   9,C  10)          121.06  0.001394   -0.36    120.70   
    54. A(C   4,C  10,O  11)          121.48  0.000041   -0.02    121.46   
    55. A(C   4,C  10,C   9)          121.38  0.000910   -0.14    121.24   
    56. A(C   9,C  10,O  11)          117.14 -0.000951    0.17    117.31   
    57. A(C  10,O  11,C  12)          121.78 -0.005281    0.99    122.77   
    58. A(O  11,C  12,O  13)          119.85  0.003488   -0.71    119.13   
    59. A(C   2,C  12,O  13)          122.96 -0.005983    1.29    124.25   
    60. A(C   2,C  12,O  11)          117.19  0.002495   -0.57    116.62   
    61. A(H  19,O  18,H  20)          104.93 -0.002632    1.21    106.14   
    62. A(O   8,O  18,H  20)           32.84  0.001229   -0.45     32.39   
    63. A(O   8,O  18,H  19)          112.74 -0.001620    0.87    113.61   
    64. A(C   7,H  20,O   8)           14.76  0.002061   -0.28     14.48   
    65. A(O   8,H  20,O  18)          138.49 -0.001805    0.56    139.05   
    66. A(C   7,H  20,O  18)          145.04 -0.000806    0.28    145.33   
    67. D(H  14,C   3,C   2,C   1)      0.02 -0.000008    0.01      0.04   
    68. D(H  14,C   3,C   2,C  12)   -180.00  0.000009   -0.02   -180.02   
    69. D(C   4,C   3,C   2,C  12)      0.00  0.000012   -0.04     -0.03   
    70. D(C   4,C   3,C   2,C   1)   -179.97 -0.000005   -0.00   -179.98   
    71. D(C   5,C   4,C   3,H  14)      0.01 -0.000001   -0.00      0.00   
    72. D(C  10,C   4,C   3,C   2)     -0.02  0.000011   -0.03     -0.05   
    73. D(C   5,C   4,C   3,C   2)   -180.00 -0.000003    0.01   -179.98   
    74. D(C  10,C   4,C   3,H  14)    179.98  0.000014   -0.04    179.94   
    75. D(H  15,C   5,C   4,C   3)      0.02 -0.000001   -0.02      0.00   
    76. D(H  15,C   5,C   4,C  10)   -179.95 -0.000016    0.02   -179.93   
    77. D(C   6,C   5,C   4,C  10)     -0.03  0.000018   -0.01     -0.04   
    78. D(C   6,C   5,C   4,C   3)    179.95  0.000033   -0.05    179.90   
    79. D(C   7,C   6,C   5,H  15)    179.99  0.000018   -0.05    179.95   
    80. D(H  16,C   6,C   5,C   4)   -179.90 -0.000053    0.02   -179.88   
    81. D(C   7,C   6,C   5,C   4)      0.07 -0.000021   -0.02      0.05   
    82. D(H  16,C   6,C   5,H  15)      0.03 -0.000014   -0.01      0.02   
    83. D(H  20,C   7,C   6,H  16)    -53.38 -0.000596    0.29    -53.09   
    84. D(H  20,C   7,C   6,C   5)    126.65 -0.000626    0.33    126.98   
    85. D(C   9,C   7,C   6,H  16)    179.89  0.000036    0.00    179.89   
    86. D(C   9,C   7,C   6,C   5)     -0.08  0.000006    0.04     -0.04   
    87. D(O   8,C   7,C   6,H  16)     -0.06  0.000419   -0.06     -0.12   
    88. D(O   8,C   7,C   6,C   5)    179.98  0.000389   -0.03    179.95   
    89. D(H  20,O   8,C   7,C   6)   -105.22 -0.000192    0.02   -105.20   
    90. D(O  18,O   8,C   7,H  20)      8.75  0.000229   -0.01      8.74   
    91. D(O  18,O   8,C   7,C   9)     83.59  0.000444   -0.06     83.53   
    92. D(H  20,O   8,C   7,C   9)     74.84  0.000215   -0.05     74.78   
    93. D(O  18,O   8,C   7,C   6)    -96.47  0.000037    0.01    -96.46   
    94. D(C  10,C   9,C   7,O   8)    179.99 -0.000369    0.03    180.02   
    95. D(C  10,C   9,C   7,H  20)   -135.86  0.000341   -0.21   -136.07   
    96. D(C  10,C   9,C   7,C   6)      0.05  0.000015   -0.04      0.01   
    97. D(H  17,C   9,C   7,C   6)   -179.85 -0.000024    0.09   -179.76   
    98. D(H  17,C   9,C   7,H  20)     44.24  0.000303   -0.07     44.16   
    99. D(H  17,C   9,C   7,O   8)      0.09 -0.000408    0.16      0.25   
   100. D(O  11,C  10,C   9,H  17)     -0.13  0.000035   -0.12     -0.25   
   101. D(O  11,C  10,C   9,C   7)    179.97 -0.000004    0.01    179.98   
   102. D(C   4,C  10,C   9,H  17)    179.89  0.000020   -0.12    179.77   
   103. D(C   4,C  10,C   9,C   7)     -0.02 -0.000020    0.02      0.00   
   104. D(O  11,C  10,C   4,C   5)   -179.99 -0.000011    0.01   -179.97   
   105. D(O  11,C  10,C   4,C   3)      0.04 -0.000024    0.05      0.09   
   106. D(C   9,C  10,C   4,C   5)     -0.00  0.000005    0.01      0.01   
   107. D(C   9,C  10,C   4,C   3)   -179.97 -0.000008    0.05   -179.92   
   108. D(C  12,O  11,C  10,C   9)    179.98 -0.000002   -0.01    179.97   
   109. D(C  12,O  11,C  10,C   4)     -0.04  0.000013   -0.01     -0.05   
   110. D(O  13,C  12,O  11,C  10)    179.94 -0.000007    0.02    179.96   
   111. D(C   2,C  12,O  11,C  10)      0.02  0.000011   -0.05     -0.04   
   112. D(O  13,C  12,C   2,C   3)   -179.92 -0.000015    0.00   -179.91   
   113. D(O  13,C  12,C   2,C   1)      0.06  0.000000   -0.03      0.03   
   114. D(O  11,C  12,C   2,C   3)     -0.00 -0.000025    0.08      0.08   
   115. D(O  11,C  12,C   2,C   1)    179.98 -0.000010    0.04    180.02   
   116. D(H  20,O  18,O   8,C   7)    -60.31  0.001240   -0.68    -60.99   
   117. D(H  19,O  18,O   8,H  20)     82.28 -0.001728    0.66     82.94   
   118. D(H  19,O  18,O   8,C   7)     21.97 -0.000488   -0.02     21.95   
   119. D(O   8,H  20,O  18,H  19)   -108.95 -0.000749    0.13   -108.81   
   120. D(C   7,H  20,O  18,O   8)     21.51  0.002345   -0.08     21.43   
   121. D(C   7,H  20,O  18,H  19)    -87.44  0.001596    0.05    -87.38   
   122. D(C   7,H  20,O   8,O  18)   -124.44 -0.001052    0.63   -123.81   
   123. D(O  18,H  20,O   8,C   7)    124.44  0.001052   -0.63    123.81   
   124. D(O   8,H  20,C   7,C   9)   -122.98 -0.000448    0.16   -122.82   
   125. D(O   8,H  20,C   7,C   6)    104.59  0.000780   -0.32    104.27   
   126. D(O  18,H  20,C   7,C   9)    164.46 -0.000973   -0.51    163.95   
   127. D(O  18,H  20,C   7,O   8)    -72.56 -0.000525   -0.66    -73.22   
   128. D(O  18,H  20,C   7,C   6)     32.04  0.000255   -0.99     31.05   
    ----------------------------------------------------------------------------

         *************************************************************
         *                GEOMETRY OPTIMIZATION CYCLE   3            *
         *************************************************************
---------------------------------
CARTESIAN COORDINATES (ANGSTROEM)
---------------------------------
  N    -0.945308   -4.642495   -0.250253
  C    -0.790825   -3.531814   -0.022029
  C    -0.572402   -2.155508    0.198205
  C     0.015858   -1.374311   -0.755223
  C     0.219815    0.001266   -0.500464
  C     0.822392    0.871696   -1.440797
  C     0.995493    2.184230   -1.153151
  C     0.576909    2.752831    0.118883
  O     0.736520    3.945748    0.377310
  C    -0.036540    1.841551    1.063549
  C    -0.201861    0.521402    0.752464
  O    -0.784407   -0.270990    1.688868
  C    -1.002529   -1.594547    1.497079
  O    -1.520377   -2.231549    2.367163
  H     0.332556   -1.778254   -1.705953
  H     1.145952    0.489636   -2.396063
  H     1.453465    2.842007   -1.875017
  H    -0.367810    2.214152    2.019142
  O     3.965597    5.569987    2.562939
  H     4.743357    5.008746    2.573515
  H     3.209931    4.978513    2.552716

----------------------------
CARTESIAN COORDINATES (A.U.)
----------------------------
  NO LB    ZA    FRAG    MASS        X           Y           Z
   0 N   7.0000    0    14.007   -1.786372   -8.773045   -0.472909
   1 C   6.0000    0    12.011   -1.494442   -6.674160   -0.041629
   2 C   6.0000    0    12.011   -1.081684   -4.073319    0.374553
   3 C   6.0000    0    12.011    0.029968   -2.597072   -1.427166
   4 C   6.0000    0    12.011    0.415390    0.002393   -0.945741
   5 C   6.0000    0    12.011    1.554095    1.647267   -2.722711
   6 C   6.0000    0    12.011    1.881209    4.127596   -2.179140
   7 C   6.0000    0    12.011    1.090200    5.202097    0.224657
   8 O   8.0000    0    15.999    1.391820    7.456383    0.713013
   9 C   6.0000    0    12.011   -0.069051    3.480026    2.009817
  10 C   6.0000    0    12.011   -0.381461    0.985307    1.421952
  11 O   8.0000    0    15.999   -1.482315   -0.512097    3.191498
  12 C   6.0000    0    12.011   -1.894504   -3.013257    2.829069
[...]
    38. A(C   5,C   6,H  16)          121.90  0.000010   -0.01    121.90   
    39. A(C   5,C   6,C   7)          121.31  0.000022   -0.00    121.30   
    40. A(O   8,C   7,C   9)          121.70 -0.000013    0.00    121.71   
    41. A(C   6,C   7,C   9)          116.48  0.000000    0.00    116.48   
    42. A(C   6,C   7,O   8)          121.82  0.000013   -0.01    121.81   
    43. L(C   7,O   8,H  20,C   9, 2)   0.48  0.000011   -0.15      0.33   
    44. L(C   7,O   8,H  20,C   9, 1) 176.92  0.000010   -0.05    176.87   
    45. A(C  10,C   9,H  17)          120.44  0.000014   -0.02    120.43   
    46. A(C   7,C   9,H  17)          118.43 -0.000012    0.02    118.45   
    47. A(C   7,C   9,C  10)          121.13 -0.000001   -0.01    121.12   
    48. A(C   4,C  10,O  11)          120.85  0.000003   -0.00    120.85   
    49. A(C   4,C  10,C   9)          120.95 -0.000024    0.00    120.95   
    50. A(C   9,C  10,O  11)          118.20  0.000021   -0.00    118.20   
    51. A(C  10,O  11,C  12)          123.61  0.000017    0.00    123.61   
    52. A(O  11,C  12,O  13)          118.91  0.000000   -0.00    118.91   
    53. A(C   2,C  12,O  13)          125.07  0.000007   -0.00    125.06   
    54. A(C   2,C  12,O  11)          116.03 -0.000008    0.00    116.03   
    55. A(H  19,O  18,H  20)          106.52  0.000027    0.00    106.53   
    56. L(O   8,H  20,O  18,H  19, 2) 173.72 -0.000014    0.31    174.03   
    57. L(O   8,H  20,O  18,H  19, 1) 201.09  0.000076   -0.17    200.93   
    58. D(H  14,C   3,C   2,C  12)   -180.00  0.000001   -0.01   -180.00   
    59. D(H  14,C   3,C   2,C   1)      0.00 -0.000002   -0.01     -0.00   
    60. D(C   4,C   3,C   2,C   1)   -180.00 -0.000003   -0.00   -180.00   
    61. D(C   4,C   3,C   2,C  12)      0.00  0.000001   -0.01     -0.00   
    62. D(C  10,C   4,C   3,H  14)    180.00 -0.000001   -0.01    179.99   
    63. D(C  10,C   4,C   3,C   2)      0.00 -0.000001   -0.02     -0.02   
    64. D(C   5,C   4,C   3,H  14)      0.01  0.000004   -0.03     -0.01   
    65. D(C   5,C   4,C   3,C   2)   -179.99  0.000005   -0.03   -180.02   
    66. D(H  15,C   5,C   4,C  10)    179.95 -0.000005    0.02    179.96   
    67. D(H  15,C   5,C   4,C   3)     -0.06 -0.000010    0.03     -0.04   
    68. D(C   6,C   5,C   4,C   3)    179.97 -0.000002    0.03    179.99   
    69. D(C   6,C   5,C   4,C  10)     -0.02  0.000003    0.01     -0.01   
    70. D(C   7,C   6,C   5,H  15)    179.98 -0.000005   -0.01    179.97   
    71. D(C   7,C   6,C   5,C   4)     -0.05 -0.000013   -0.01     -0.06   
    72. D(H  16,C   6,C   5,C   4)    179.95 -0.000003   -0.01    179.94   
    73. D(H  16,C   6,C   5,H  15)     -0.02  0.000005   -0.01     -0.03   
    74. D(C   9,C   7,C   6,H  16)   -179.90  0.000005    0.00   -179.90   
    75. D(C   9,C   7,C   6,C   5)      0.10  0.000015   -0.00      0.10   
    76. D(O   8,C   7,C   6,H  16)      0.07 -0.000005    0.01      0.08   
    77. D(O   8,C   7,C   6,C   5)   -179.93  0.000005    0.01   -179.92   
    78. D(H  17,C   9,C   7,O   8)     -0.01  0.000003   -0.01     -0.02   
    79. D(H  17,C   9,C   7,C   6)    179.96 -0.000006    0.00    179.96   
    80. D(C  10,C   9,C   7,O   8)    179.95  0.000002   -0.01    179.94   
    81. D(C  10,C   9,C   7,C   6)     -0.08 -0.000007    0.00     -0.08   
    82. D(C   4,C  10,C   9,H  17)    179.98 -0.000003    0.01    179.98   
    83. D(C   4,C  10,C   9,C   7)      0.01 -0.000002    0.01      0.02   
    84. D(O  11,C  10,C   4,C   5)   -179.96  0.000001   -0.01   -179.97   
    85. D(O  11,C  10,C   4,C   3)      0.05  0.000006   -0.02      0.03   
    86. D(C   9,C  10,C   4,C   5)      0.04  0.000004   -0.01      0.03   
    87. D(O  11,C  10,C   9,C   7)   -179.99  0.000001    0.00   -179.99   
    88. D(C   9,C  10,C   4,C   3)   -179.95  0.000009   -0.02   -179.97   
    89. D(O  11,C  10,C   9,H  17)     -0.02  0.000000    0.00     -0.02   
    90. D(C  12,O  11,C  10,C   9)    179.89 -0.000015    0.09    179.97   
    91. D(C  12,O  11,C  10,C   4)     -0.11 -0.000012    0.08     -0.03   
    92. D(O  13,C  12,O  11,C  10)   -179.90  0.000010   -0.08   -179.99   
    93. D(C   2,C  12,O  11,C  10)      0.11  0.000012   -0.10      0.01   
    94. D(O  13,C  12,C   2,C   3)    179.96 -0.000004    0.05    180.01   
    95. D(O  13,C  12,C   2,C   1)     -0.04 -0.000000    0.04      0.00   
    96. D(O  11,C  12,C   2,C   3)     -0.05 -0.000006    0.06      0.01   
    97. D(O  11,C  12,C   2,C   1)    179.95 -0.000002    0.06    180.01   
    98. D(H  19,O  18,C   7,C   9)     -1.15 -0.000002    0.32     -0.82   
    99. D(H  19,O  18,C   7,C   6)   -176.14  0.000011   -0.34   -176.48   
    ----------------------------------------------------------------------------
                 *******************************************************
                 *** FINAL ENERGY EVALUATION AT THE STATIONARY POINT ***
                 ***               (AFTER   86 CYCLES)               ***
                 *******************************************************
---------------------------------
CARTESIAN COORDINATES (ANGSTROEM)
---------------------------------
  N    -1.874997   -3.927499   -1.391119
  C    -1.416955   -3.046211   -0.818327
  C    -0.843594   -1.947316   -0.150042
  C    -0.291355   -0.902169   -0.843852
  C     0.275339    0.184360   -0.152668
  C     0.863439    1.297500   -0.809294
  C     1.398477    2.324132   -0.109001
  C     1.392485    2.331117    1.353476
  O     1.875849    3.261736    2.000558
  C     0.787736    1.184091    2.003249
  C     0.254027    0.158749    1.273658
  O    -0.296346   -0.883819    1.941863
  C    -0.859340   -1.962745    1.325951
  O    -1.322498   -2.838574    2.000527
  H    -0.288604   -0.907780   -1.925448
  H     0.871075    1.299424   -1.889606
  H     1.849195    3.175381   -0.598357
  H     0.766767    1.156116    3.081449
  O     2.888210    5.122410    0.096023
  H     3.348927    5.911571    0.384210
  H     2.617951    4.651822    0.899633

----------------------------
CARTESIAN COORDINATES (A.U.)
----------------------------
  NO LB    ZA    FRAG    MASS        X           Y           Z
   0 N   7.0000    0    14.007   -3.543231   -7.421898   -2.628834
   1 C   6.0000    0    12.011   -2.677656   -5.756504   -1.546413
   2 C   6.0000    0    12.011   -1.594162   -3.679893   -0.283539
   3 C   6.0000    0    12.011   -0.550581   -1.704852   -1.594648
   4 C   6.0000    0    12.011    0.520314    0.348389   -0.288500
   5 C   6.0000    0    12.011    1.631663    2.451920   -1.529345
   6 C   6.0000    0    12.011    2.642738    4.391973   -0.205981
   7 C   6.0000    0    12.011    2.631415    4.405173    2.557700
   8 O   8.0000    0    15.999    3.544841    6.163788    3.780506
   9 C   6.0000    0    12.011    1.488605    2.237607    3.785592
  10 C   6.0000    0    12.011    0.480042    0.299993    2.406866
  11 O   8.0000    0    15.999   -0.560014   -1.670176    3.669589
  12 C   6.0000    0    12.011   -1.623917   -3.709051    2.505684
  13 O   8.0000    0    15.999   -2.499159   -5.364127    3.780448
  14 H   1.0000    0     1.008   -0.545383   -1.715455   -3.638570
  15 H   1.0000    0     1.008    1.646093    2.455555   -3.570838
  16 H   1.0000    0     1.008    3.494473    6.000600   -1.130731
  17 H   1.0000    0     1.008    1.448980    2.184743    5.823095
  18 O   8.0000    0    15.999    5.457926    9.679953    0.181457
  19 H   1.0000    0     1.008    6.328555   11.171251    0.726052
  20 H   1.0000    0     1.008    4.947210    8.790669    1.700059

      -----------------------------------------------------------      
     |                   =====================                   |     
     |                           x T B                           |     
     |                   =====================                   |     
     |                         S. Grimme                         |     
     |          Mulliken Center for Theoretical Chemistry        |     
     |                    University of Bonn                     |     
      -----------------------------------------------------------      

   * xtb version 6.6.1 (8d0f1dd) compiled by 'stahn@M-Bot' on 2023-08-01

   xtb is free software: you can redistribute it and/or modify it under
   the terms of the GNU Lesser General Public License as published by
   the Free Software Foundation, either version 3 of the License, or
   (at your option) any later version.
   
   xtb is distributed in the hope that it will be useful,
   but WITHOUT ANY WARRANTY; without even the implied warranty of
   MERCHANTABILITY or FITNESS FOR A PARTICULAR PURPOSE.  See the
   GNU Lesser General Public License for more details.
   
   Cite this work as:
   * C. Bannwarth, E. Caldeweyher, S. Ehlert, A. Hansen, P. Pracht,
     J. Seibert, S. Spicher, S. Grimme, WIREs Comput. Mol. Sci., 2020, 11,
     e01493. DOI: 10.1002/wcms.1493
   
   for GFN2-xTB:
   * C. Bannwarth, S. Ehlert and S. Grimme., J. Chem. Theory Comput., 2019,
     15, 1652-1671. DOI: 10.1021/acs.jctc.8b01176
   for GFN1-xTB:
   * S. Grimme, C. Bannwarth, P. Shushkov, J. Chem. Theory Comput., 2017,
     13, 1989-2009. DOI: 10.1021/acs.jctc.7b00118
   for GFN0-xTB:
   * P. Pracht, E. Caldeweyher, S. Ehlert, S. Grimme, ChemRxiv, 2019, preprint.
     DOI: 10.26434/chemrxiv.8326202.v1
   for GFN-FF:
   * S. Spicher and S. Grimme, Angew. Chem. Int. Ed., 2020, 59, 15665-15673.
     DOI: 10.1002/anie.202004239
   
   for ALPB and GBSA implicit solvation:
   * S. Ehlert, M. Stahn, S. Spicher, S. Grimme, J. Chem. Theory Comput.,
     2021, 17, 4250-4261. DOI: 10.1021/acs.jctc.1c00471
   
   for DFT-D4:
   * E. Caldeweyher, C. Bannwarth and S. Grimme, J. Chem. Phys., 2017,
     147, 034112. DOI: 10.1063/1.4993215
   * E. Caldeweyher, S. Ehlert, A. Hansen, H. Neugebauer, S. Spicher,
     C. Bannwarth and S. Grimme, J. Chem. Phys., 2019, 150, 154122.
     DOI: 10.1063/1.5090222
   * E. Caldeweyher, J.-M. Mewes, S. Ehlert and S. Grimme, Phys. Chem. Chem. Phys.
     2020, 22, 8499-8512. DOI: 10.1039/D0CP00502A
   
   for sTDA-xTB:
   * S. Grimme and C. Bannwarth, J. Chem. Phys., 2016, 145, 054103.
     DOI: 10.1063/1.4959605
   
   in the mass-spec context:
   * V. Asgeirsson, C. Bauer and S. Grimme, Chem. Sci., 2017, 8, 4879.
     DOI: 10.1039/c7sc00601b
   * J. Koopman and S. Grimme, ACS Omega 2019, 4, 12, 15120-15133.
     DOI: 10.1021/acsomega.9b02011
   
   for metadynamics refer to:
   * S. Grimme, J. Chem. Theory Comput., 2019, 155, 2847-2862
     DOI: 10.1021/acs.jctc.9b00143
   
   for SPH calculations refer to:
   * S. Spicher and S. Grimme, J. Chem. Theory Comput., 2021, 17, 1701-1714
     DOI: 10.1021/acs.jctc.0c01306
   
   with help from (in alphabetical order)
   P. Atkinson, C. Bannwarth, F. Bohle, G. Brandenburg, E. Caldeweyher
   M. Checinski, S. Dohm, S. Ehlert, S. Ehrlich, I. Gerasimov, C. Hölzer
   A. Katbashev, J. Koopman, C. Lavigne, S. Lehtola, F. März, M. Müller,
   F. Musil, H. Neugebauer, J. Pisarek, C. Plett, P. Pracht, F. Pultar,
   J. Seibert, P. Shushkov, S. Spicher, M. Stahn, M. Steiner, T. Strunk,
   J. Stückrath, T. Rose, and J. Unsleber
   
 * started run on 2025/01/14 at 21:00:56.025     

           -------------------------------------------------
          |                Calculation Setup                |
           -------------------------------------------------

          program call               : /home/jang/cal_tmp/10_orca/orca_5_0_4_linux_x86-64_shared_openmpi411/otool_xtb /home/jang/cal_tmp/10_orca/Gen_chromophore/Gen_molecular_pairs_cal/mol_2_1.xyz/input_XTB.xyz --grad -c 0 -u 0 -P 4 --namespace /home/jang/cal_tmp/10_orca/Gen_chromophore/Gen_molecular_pairs_cal/mol_2_1.xyz/input --input /home/jang/cal_tmp/10_orca/Gen_chromophore/Gen_molecular_pairs_cal/mol_2_1.xyz/input_XTB.input.tmp --acc 1.000000
          hostname                   : node02
          calculation namespace      : /home/jang/cal_tmp/10_orca/Gen_chromophore/Gen_molecular_pairs_cal/mol_2_1.xyz/input
          coordinate file            : /home/jang/cal_tmp/10_orca/Gen_chromophore/Gen_molecular_pairs_cal/mol_2_1.xyz/input_XTB.xyz
          omp threads                :                     4

   ID    Z sym.   atoms
    1    7 N      1
    2    6 C      2-8, 10, 11, 13
    3    8 O      9, 12, 14, 19
    4    1 H      15-18, 20, 21

molecular fragmentation (1/2 indicates fragments):
111111111111111111222
# atoms in fragment 1/2:    18     3
 fragment masses (1/2) :      186.14       18.02
CMA distance (Bohr)    :  11.736
constraining FC (au)   :  0.0500

           -------------------------------------------------
          |                 G F N 2 - x T B                 |
           -------------------------------------------------

        Reference                      10.1021/acs.jctc.8b01176
      * Hamiltonian:
        H0-scaling (s, p, d)           1.850000    2.230000    2.230000
        zeta-weighting                 0.500000
      * Dispersion:
        s8                             2.700000
        a1                             0.520000
        a2                             5.000000
        s9                             5.000000
      * Repulsion:
        kExp                           1.500000    1.000000
        rExp                           1.000000
      * Coulomb:
        alpha                          2.000000
        third order                    shell-resolved
        anisotropic                    true
        a3                             3.000000
        a5                             4.000000
        cn-shift                       1.200000
        cn-exp                         4.000000
        max-rad                        5.000000

q/qsh data taken from xtbrestart
CAMM data taken from xtbrestart

          ...................................................
          :                      SETUP                      :
          :.................................................:
          :  # basis functions                  66          :
          :  # atomic orbitals                  66          :
          :  # shells                           36          :
          :  # electrons                        75          :
          :  max. iterations                   250          :
          :  Hamiltonian                  GFN2-xTB          :
          :  restarted?                       true          :
          :  GBSA solvation                  false          :
          :  PC potential                    false          :
          :  electronic temp.          300.0000000     K    :
          :  accuracy                    1.0000000          :
          :  -> integral cutoff          0.2500000E+02      :
          :  -> integral neglect         0.1000000E-07      :
          :  -> SCF convergence          0.1000000E-05 Eh   :
          :  -> wf. convergence          0.1000000E-03 e    :
          :  Broyden damping             0.4000000          :
          ...................................................

 iter      E             dE          RMSdq      gap      omega  full diag
   1    -44.1497638 -0.441498E+02  0.823E-03    2.24       0.0  T
   2    -44.1497638 -0.146567E-07  0.478E-03    2.24       4.6  T
   3    -44.1497637  0.863106E-07  0.215E-03    2.24      10.1  T
   4    -44.1497638 -0.993965E-07  0.369E-04    2.24      59.2  T
   5    -44.1497638 -0.613198E-09  0.253E-04    2.24      86.1  T

   *** convergence criteria satisfied after 5 iterations ***

         #    Occupation            Energy/Eh            Energy/eV
      -------------------------------------------------------------
         1        2.0000           -0.7952583             -21.6401
       ...           ...                  ...                  ...
        32        2.0000           -0.4768312             -12.9752
        33        2.0000           -0.4631469             -12.6029
        34        2.0000           -0.4576573             -12.4535
        35        2.0000           -0.4503736             -12.2553
        36        1.9997           -0.4331536             -11.7867
        37        1.9992           -0.4321802             -11.7602
        38        1.0011           -0.4190299             -11.4024 (HOMO)
        39                         -0.3365996              -9.1593 (LUMO)
        40                         -0.2872769              -7.8172
        41                         -0.2622884              -7.1372
        42                         -0.2438250              -6.6348
        43                         -0.2424084              -6.5963
       ...                                ...                  ...
        66                          1.1383361              30.9757
      -------------------------------------------------------------
                  HL-Gap            0.0824304 Eh            2.2430 eV
             Fermi-level           -0.4016369 Eh          -10.9291 eV

 SCC (total)                   0 d,  0 h,  0 min,  0.040 sec
 SCC setup                      ...        0 min,  0.000 sec (  1.167%)
 Dispersion                     ...        0 min,  0.000 sec (  1.138%)
 classical contributions        ...        0 min,  0.000 sec (  0.278%)
 integral evaluation            ...        0 min,  0.003 sec (  8.352%)
 iterations                     ...        0 min,  0.031 sec ( 77.400%)
 molecular gradient             ...        0 min,  0.004 sec ( 10.670%)
 printout                       ...        0 min,  0.000 sec (  0.803%)

         :::::::::::::::::::::::::::::::::::::::::::::::::::::
         ::                     SUMMARY                     ::
         :::::::::::::::::::::::::::::::::::::::::::::::::::::
         :: total energy             -43.554760446198 Eh    ::
         :: gradient norm              0.000306497017 Eh/a0 ::
         :: HOMO-LUMO gap              2.243044387825 eV    ::
         ::.................................................::
         :: SCC energy               -44.149763787249 Eh    ::
         :: -> isotropic ES            0.104120643602 Eh    ::
         :: -> anisotropic ES         -0.003418703233 Eh    ::
         :: -> anisotropic XC          0.021689731041 Eh    ::
         :: -> dispersion             -0.020147064003 Eh    ::
         :: repulsion energy           0.595103182047 Eh    ::
         :: add. restraining           0.000000000000 Eh    ::
         :: total charge               0.000000000002 e     ::
         :::::::::::::::::::::::::::::::::::::::::::::::::::::


Property printout bound to 'properties.out'

           -------------------------------------------------
          | TOTAL ENERGY              -43.554760446198 Eh   |
          | GRADIENT NORM               0.000306497017 Eh/α |
          | HOMO-LUMO GAP               2.243044387825 eV   |
           -------------------------------------------------

------------------------------------------------------------------------
 * finished run on 2025/01/14 at 21:00:56.242     
------------------------------------------------------------------------
 total:
 * wall-time:     0 d,  0 h,  0 min,  0.215 sec
 *  cpu-time:     0 d,  0 h,  0 min,  0.589 sec
 * ratio c/w:     2.741 speedup
 SCF:
 * wall-time:     0 d,  0 h,  0 min,  0.041 sec
 *  cpu-time:     0 d,  0 h,  0 min,  0.144 sec
 * ratio c/w:     3.541 speedup


-------------------------   --------------------
FINAL SINGLE POINT ENERGY       -43.554760446200
-------------------------   --------------------

                                *** OPTIMIZATION RUN DONE ***

Timings for individual modules:

Sum of individual times         ...      198.765 sec (=   3.313 min)
Geometry relaxation             ...       56.274 sec (=   0.938 min)  28.3 %
XTB module                      ...      142.491 sec (=   2.375 min)  71.7 %
                             ****ORCA TERMINATED NORMALLY****
TOTAL RUN TIME: 0 days 0 hours 13 minutes 0 seconds 141 msec
