
                                 *****************
                                 * O   R   C   A *
                                 *****************

                                            #,                                       
                                            ###                                      
                                            ####                                     
                                            #####                                    
                                            ######                                   
                                           ########,                                 
                                     ,,################,,,,,                         
                               ,,#################################,,                 
                          ,,##########################################,,             
                       ,#########################################, ''#####,          
                    ,#############################################,,   '####,        
                  ,##################################################,,,,####,       
                ,###########''''           ''''###############################       
              ,#####''   ,,,,##########,,,,          '''####'''          '####       
            ,##' ,,,,###########################,,,                        '##       
           ' ,,###''''                  '''############,,,                           
         ,,##''                                '''############,,,,        ,,,,,,###''
      ,#''                                            '''#######################'''  
     '                                                          ''''####''''         
             ,#######,   #######,   ,#######,      ##                                
            ,#'     '#,  ##    ##  ,#'     '#,    #''#        ######   ,####,        
            ##       ##  ##   ,#'  ##            #'  '#       #        #'  '#        
            ##       ##  #######   ##           ,######,      #####,   #    #        
            '#,     ,#'  ##    ##  '#,     ,#' ,#      #,         ##   #,  ,#        
             '#######'   ##     ##  '#######'  #'      '#     #####' # '####'        



                  #######################################################
                  #                        -***-                        #
                  #          Department of theory and spectroscopy      #
                  #    Directorship and core code : Frank Neese         #
                  #        Max Planck Institute fuer Kohlenforschung    #
                  #                Kaiser Wilhelm Platz 1               #
                  #                 D-45470 Muelheim/Ruhr               #
                  #                      Germany                        #
                  #                                                     #
                  #                  All rights reserved                #
                  #                        -***-                        #
                  #######################################################


                         Program Version 5.0.4 -  RELEASE  -


 With contributions from (in alphabetic order):
   Daniel Aravena         : Magnetic Suceptibility
   Michael Atanasov       : Ab Initio Ligand Field Theory (pilot matlab implementation)
   Alexander A. Auer      : GIAO ZORA, VPT2 properties, NMR spectrum
   Ute Becker             : Parallelization
   Giovanni Bistoni       : ED, misc. LED, open-shell LED, HFLD
   Martin Brehm           : Molecular dynamics
   Dmytro Bykov           : SCF Hessian
   Vijay G. Chilkuri      : MRCI spin determinant printing, contributions to CSF-ICE
   Dipayan Datta          : RHF DLPNO-CCSD density
   Achintya Kumar Dutta   : EOM-CC, STEOM-CC
   Dmitry Ganyushin       : Spin-Orbit,Spin-Spin,Magnetic field MRCI
   Miquel Garcia          : C-PCM and meta-GGA Hessian, CC/C-PCM, Gaussian charge scheme
   Yang Guo               : DLPNO-NEVPT2, F12-NEVPT2, CIM, IAO-localization
   Andreas Hansen         : Spin unrestricted coupled pair/coupled cluster methods
   Benjamin Helmich-Paris : MC-RPA, TRAH-SCF, COSX integrals
   Lee Huntington         : MR-EOM, pCC
   Robert Izsak           : Overlap fitted RIJCOSX, COSX-SCS-MP3, EOM
   Marcus Kettner         : VPT2
   Christian Kollmar      : KDIIS, OOCD, Brueckner-CCSD(T), CCSD density, CASPT2, CASPT2-K
   Simone Kossmann        : Meta GGA functionals, TD-DFT gradient, OOMP2, MP2 Hessian
   Martin Krupicka        : Initial AUTO-CI
   Lucas Lang             : DCDCAS
   Marvin Lechner         : AUTO-CI (C++ implementation), FIC-MRCC
   Dagmar Lenk            : GEPOL surface, SMD
   Dimitrios Liakos       : Extrapolation schemes; Compound Job, initial MDCI parallelization
   Dimitrios Manganas     : Further ROCIS development; embedding schemes
   Dimitrios Pantazis     : SARC Basis sets
   Anastasios Papadopoulos: AUTO-CI, single reference methods and gradients
   Taras Petrenko         : DFT Hessian,TD-DFT gradient, ASA, ECA, R-Raman, ABS, FL, XAS/XES, NRVS
   Peter Pinski           : DLPNO-MP2, DLPNO-MP2 Gradient
   Christoph Reimann      : Effective Core Potentials
   Marius Retegan         : Local ZFS, SOC
   Christoph Riplinger    : Optimizer, TS searches, QM/MM, DLPNO-CCSD(T), (RO)-DLPNO pert. Triples
   Tobias Risthaus        : Range-separated hybrids, TD-DFT gradient, RPA, STAB
   Michael Roemelt        : Original ROCIS implementation
   Masaaki Saitow         : Open-shell DLPNO-CCSD energy and density
   Barbara Sandhoefer     : DKH picture change effects
   Avijit Sen             : IP-ROCIS
   Kantharuban Sivalingam : CASSCF convergence, NEVPT2, FIC-MRCI
   Bernardo de Souza      : ESD, SOC TD-DFT
   Georgi Stoychev        : AutoAux, RI-MP2 NMR, DLPNO-MP2 response
   Willem Van den Heuvel  : Paramagnetic NMR
   Boris Wezisla          : Elementary symmetry handling
   Frank Wennmohs         : Technical directorship


 We gratefully acknowledge several colleagues who have allowed us to
 interface, adapt or use parts of their codes:
   Stefan Grimme, W. Hujo, H. Kruse, P. Pracht,  : VdW corrections, initial TS optimization,
                  C. Bannwarth, S. Ehlert          DFT functionals, gCP, sTDA/sTD-DF
   Ed Valeev, F. Pavosevic, A. Kumar             : LibInt (2-el integral package), F12 methods
   Garnet Chan, S. Sharma, J. Yang, R. Olivares  : DMRG
   Ulf Ekstrom                                   : XCFun DFT Library
   Mihaly Kallay                                 : mrcc  (arbitrary order and MRCC methods)
   Jiri Pittner, Ondrej Demel                    : Mk-CCSD
   Frank Weinhold                                : gennbo (NPA and NBO analysis)
   Christopher J. Cramer and Donald G. Truhlar   : smd solvation model
   Lars Goerigk                                  : TD-DFT with DH, B97 family of functionals
   V. Asgeirsson, H. Jonsson                     : NEB implementation
   FAccTs GmbH                                   : IRC, NEB, NEB-TS, DLPNO-Multilevel, CI-OPT
                                                   MM, QMMM, 2- and 3-layer-ONIOM, Crystal-QMMM,
                                                   LR-CPCM, SF, NACMEs, symmetry and pop. for TD-DFT,
                                                   nearIR, NL-DFT gradient (VV10), updates on ESD,
                                                   ML-optimized integration grids
   S Lehtola, MJT Oliveira, MAL Marques          : LibXC Library
   Liviu Ungur et al                             : ANISO software


 Your calculation uses the libint2 library for the computation of 2-el integrals
 For citations please refer to: http://libint.valeyev.net

 Your ORCA version has been built with support for libXC version: 5.1.0
 For citations please refer to: https://tddft.org/programs/libxc/

 This ORCA versions uses:
   CBLAS   interface :  Fast vector & matrix operations
   LAPACKE interface :  Fast linear algebra routines
   SCALAPACK package :  Parallel linear algebra routines
   Shared memory     :  Shared parallel matrices
   BLAS/LAPACK       :  OpenBLAS 0.3.15  USE64BITINT DYNAMIC_ARCH NO_AFFINITY SkylakeX SINGLE_THREADED
        Core in use  :  SkylakeX
   Copyright (c) 2011-2014, The OpenBLAS Project




***************************************
The coordinates will be read from file: mol.xyz
***************************************


Your calculation utilizes the atom-pairwise dispersion correction
with the Becke-Johnson damping scheme (D3BJ)
Cite in your paper:
S.Grimme, S.Ehrlich, L.Goerigk, J Comput Chem, (2011), 32, 1456–1465 
S.Grimme, J.Antony, S.Ehrlich and H.Krieg, J.Chem.Phys., 132, (2010), 154104 
   

Your calculation utilizes the semiempirical GFN2-xTB method
Please cite in your paper:
C. Bannwarth, Ehlert S., S. Grimme,  J. Chem. Theory Comput., 15, (2019), 1652.
   

================================================================================

----- Orbital basis set information -----
Your calculation utilizes the basis: def2-SVP
   F. Weigend and R. Ahlrichs, Phys. Chem. Chem. Phys. 7, 3297 (2005).

----- AuxJ basis set information -----
Your calculation utilizes the auxiliary basis: def2/J
   F. Weigend, Phys. Chem. Chem. Phys. 8, 1057 (2006).

================================================================================
                                        WARNINGS
                       Please study these warnings very carefully!
================================================================================


WARNING: Geometry Optimization
  ===> : Switching off AutoStart
         For restart on a previous wavefunction, please use MOREAD

WARNING: Found dipole moment calculation with XTB calculation
  ===> : Switching off dipole moment calculation


WARNING: TRAH-SCF for XTB is not implemented!
  ===> : Turning TRAH off!

================================================================================
                                       INPUT FILE
================================================================================
NAME = /home/jang/cal_tmp/10_orca/Gen_chromophore/Gen_molecular_pairs_cal/mol_2_7.xyz/input.inp
|  1> ! B3LYP D3BJ def2-SVP TightSCF XTB Opt PAL8
|  2> 
|  3> %geom
|  4>   MaxIter 3000
|  5> end
|  6> 
|  7> * xyzfile 0 1 mol.xyz
|  8> 
|  9> %pal nprocs 4 # any number (positive integer)
| 10> end
| 11> 
| 12>                          ****END OF INPUT****
================================================================================

                       *****************************
                       * Geometry Optimization Run *
                       *****************************

Geometry optimization settings:
Update method            Update   .... BFGS
Choice of coordinates    CoordSys .... Z-matrix Internals
Initial Hessian          InHess   .... Almoef's Model

Convergence Tolerances:
Energy Change            TolE     ....  5.0000e-06 Eh
Max. Gradient            TolMAXG  ....  3.0000e-04 Eh/bohr
RMS Gradient             TolRMSG  ....  1.0000e-04 Eh/bohr
Max. Displacement        TolMAXD  ....  4.0000e-03 bohr
RMS Displacement         TolRMSD  ....  2.0000e-03 bohr
Strict Convergence                ....  False
------------------------------------------------------------------------------
                        ORCA OPTIMIZATION COORDINATE SETUP
------------------------------------------------------------------------------

The optimization will be done in new redundant internal coordinates
Making redundant internal coordinates   ...  (new redundants) done
Evaluating the initial hessian          ...  (Almloef) done
Evaluating the coordinates              ...  done
Calculating the B-matrix                .... done
Calculating the G-matrix                .... done
Diagonalizing the G-matrix              .... done
The first mode is                       ....   58
The number of degrees of freedom        ....   57

    -----------------------------------------------------------------
                    Redundant Internal Coordinates


    -----------------------------------------------------------------
         Definition                    Initial Value    Approx d2E/dq
    -----------------------------------------------------------------
      1. B(C   1,N   0)                  1.1617         1.294464   
      2. B(C   2,C   1)                  1.4203         0.558906   
      3. B(C   3,C   2)                  1.3407         0.748977   
      4. B(C   4,C   3)                  1.4517         0.498162   
      5. B(C   5,C   4)                  1.3886         0.628017   
      6. B(C   6,C   5)                  1.4030         0.595707   
      7. B(C   7,C   6)                  1.4095         0.581595   
      8. B(O   8,C   7)                  1.2731         0.859781   
      9. B(C   9,C   7)                  1.4064         0.588194   
     10. B(C  10,C   9)                  1.3965         0.610165   
     11. B(C  10,C   4)                  1.3862         0.633503   
     12. B(O  11,C  10)                  1.4084         0.522996   
     13. B(C  12,C   2)                  1.4794         0.449829   
     14. B(C  12,O  11)                  1.3886         0.562544   
     15. B(O  13,C  12)                  1.2282         1.014053   
     16. B(H  14,C   3)                  1.0854         0.366227   
     17. B(H  15,C   5)                  1.0846         0.367344   
     18. B(H  16,C   6)                  1.0904         0.359540   
     19. B(H  17,C   9)                  1.0885         0.362113   
     20. B(O  18,H  15)                  5.3019         0.000000   
     21. B(O  18,H  14)                  5.0562         0.000000   
     22. B(O  18,C   3)                  5.4622         0.000000   
     23. B(H  19,H  15)                  4.8589         0.000000   
     24. B(H  19,H  14)                  4.4269         0.000000   
     25. B(H  19,C   5)                  5.3548         0.000000   
     26. B(H  19,C   4)                  5.4574         0.000000   
     27. B(H  19,C   3)                  4.9841         0.000000   
     28. B(H  19,O  18)                  0.9690         0.503047   
     29. B(H  20,O  18)                  0.9690         0.503047   
     30. L(N   0,C   1,C   2,C   3, 1) 176.9664         0.483890   
     31. L(N   0,C   1,C   2,C   3, 2) 180.0001         0.483890   
     32. A(C   3,C   2,C  12)          121.5410         0.423919   
     33. A(C   1,C   2,C   3)          120.2626         0.440789   
     34. A(C   1,C   2,C  12)          118.1964         0.402448   
     35. A(C   2,C   3,O  18)          111.1758         0.100812   
     36. A(C   2,C   3,C   4)          119.9811         0.431746   
     37. A(C   2,C   3,H  14)          122.0778         0.365496   
     38. A(C   4,C   3,H  14)          117.9411         0.341119   
     39. A(C   4,C   3,O  18)           95.3430         0.099770   
     40. A(H  14,C   3,O  18)           62.6446         0.097688   
     41. A(C   5,C   4,C  10)          118.4668         0.436763   
     42. A(C   3,C   4,C  10)          119.2042         0.418999   
     43. A(C   3,C   4,C   5)          122.3290         0.418350   
     44. A(C   4,C   5,C   6)          119.6307         0.431954   
     45. A(C   6,C   5,H  15)          118.6348         0.351714   
     46. A(C   4,C   5,H  15)          121.7345         0.354873   
     47. A(C   7,C   6,H  16)          117.8867         0.349025   
     48. A(C   5,C   6,H  16)          118.6857         0.350440   
     49. A(C   5,C   6,C   7)          123.4275         0.426045   
     50. A(O   8,C   7,C   9)          122.6345         0.453147   
     51. A(C   6,C   7,C   9)          114.9713         0.425078   
     52. A(C   6,C   7,O   8)          122.3942         0.452218   
     53. A(C  10,C   9,H  17)          119.4361         0.352287   
     54. A(C   7,C   9,H  17)          118.5678         0.350111   
     55. A(C   7,C   9,C  10)          121.9961         0.428746   
     56. A(C   4,C  10,O  11)          120.7891         0.419908   
     57. A(C   4,C  10,C   9)          121.5076         0.434500   
     58. A(C   9,C  10,O  11)          117.7033         0.417108   
     59. A(C  10,O  11,C  12)          121.3283         0.408478   
     60. A(O  11,C  12,O  13)          121.2293         0.460131   
     61. A(C   2,C  12,O  13)          121.6144         0.444743   
     62. A(C   2,C  12,O  11)          117.1563         0.400326   
     63. A(H  19,O  18,H  20)          103.9780         0.318375   
     64. A(C   3,O  18,H  20)          112.9971         0.098227   
     65. A(C   3,O  18,H  19)           55.9110         0.098227   
     66. D(C   4,C   3,C   2,C  12)     -0.0000         0.046854   
     67. D(H  14,C   3,C   2,C  12)   -180.0000         0.046854   
     68. D(C   4,C   3,C   2,C   1)   -180.0000         0.046854   
     69. D(O  18,C   3,C   2,C  12)   -109.8022         0.046854   
     70. D(H  14,C   3,C   2,C   1)      0.0000         0.046854   
     71. D(O  18,C   3,C   2,C   1)     70.1978         0.046854   
     72. D(C   5,C   4,C   3,C   2)   -180.0000         0.020907   
     73. D(C  10,C   4,C   3,C   2)      0.0000         0.020907   
     74. D(C  10,C   4,C   3,H  14)   -180.0000         0.020907   
     75. D(C   5,C   4,C   3,H  14)     -0.0000         0.020907   
     76. D(C   5,C   4,C   3,O  18)    -61.7833         0.020907   
     77. D(C  10,C   4,C   3,O  18)    118.2168         0.020907   
     78. D(H  15,C   5,C   4,C   3)      0.0000         0.031939   
     79. D(C   6,C   5,C   4,C  10)      0.0000         0.031939   
     80. D(C   6,C   5,C   4,C   3)   -180.0000         0.031939   
     81. D(H  15,C   5,C   4,C  10)   -180.0000         0.031939   
     82. D(H  16,C   6,C   5,H  15)     -0.0001         0.026552   
     83. D(H  16,C   6,C   5,C   4)    179.9999         0.026552   
     84. D(C   7,C   6,C   5,H  15)    180.0000         0.026552   
     85. D(C   7,C   6,C   5,C   4)     -0.0000         0.026552   
     86. D(C   9,C   7,C   6,H  16)   -179.9999         0.023245   
     87. D(C   9,C   7,C   6,C   5)      0.0000         0.023245   
     88. D(O   8,C   7,C   6,H  16)      0.0000         0.023245   
     89. D(O   8,C   7,C   6,C   5)   -180.0000         0.023245   
     90. D(H  17,C   9,C   7,O   8)      0.0000         0.023802   
     91. D(H  17,C   9,C   7,C   6)    180.0000         0.023802   
     92. D(C  10,C   9,C   7,O   8)   -180.0000         0.023802   
     93. D(C  10,C   9,C   7,C   6)     -0.0000         0.023802   
     94. D(O  11,C  10,C   4,C   3)     -0.0000         0.030266   
     95. D(C   9,C  10,C   4,C   5)      0.0000         0.030266   
     96. D(C   9,C  10,C   4,C   3)    180.0000         0.030266   
     97. D(O  11,C  10,C   9,H  17)     -0.0000         0.025714   
     98. D(O  11,C  10,C   9,C   7)    180.0000         0.025714   
     99. D(C   4,C  10,C   9,H  17)    180.0000         0.025714   
    100. D(C   4,C  10,C   9,C   7)     -0.0000         0.025714   
    101. D(O  11,C  10,C   4,C   5)   -180.0000         0.030266   
    102. D(C  12,O  11,C  10,C   9)    179.9999         0.019703   
    103. D(C  12,O  11,C  10,C   4)     -0.0001         0.019703   
    104. D(O  13,C  12,O  11,C  10)   -179.9999         0.022938   
    105. D(C   2,C  12,O  11,C  10)      0.0001         0.022938   
    106. D(O  13,C  12,C   2,C   3)    179.9999         0.013793   
    107. D(O  13,C  12,C   2,C   1)     -0.0001         0.013793   
    108. D(O  11,C  12,C   2,C   3)     -0.0001         0.013793   
    109. D(O  11,C  12,C   2,C   1)    179.9999         0.013793   
    110. D(H  20,O  18,C   3,H  14)    103.3450         0.001500   
    111. D(H  20,O  18,C   3,C   4)   -137.8732         0.001500   
    112. D(H  20,O  18,C   3,C   2)    -12.8108         0.001500   
    113. D(H  19,O  18,C   3,H  14)     11.6479         0.001500   
    114. D(H  19,O  18,C   3,C   4)    130.4297         0.001500   
    115. D(H  19,O  18,C   3,C   2)   -104.5079         0.001500   
    -----------------------------------------------------------------

Number of atoms                         .... 21
Number of degrees of freedom            .... 115

         *************************************************************
         *                GEOMETRY OPTIMIZATION CYCLE   1            *
         *************************************************************
---------------------------------
CARTESIAN COORDINATES (ANGSTROEM)
---------------------------------
  N    -0.934059   -4.689148   -0.300813
  C    -0.789539   -3.564798   -0.046780
  C    -0.581237   -2.180989    0.196196
  C     0.000284   -1.411545   -0.735008
  C     0.210207    0.002077   -0.480230
  C     0.807281    0.843489   -1.409606
  C     0.982376    2.201535   -1.103995
  C     0.580879    2.780768    0.116658
  O     0.749466    4.016257    0.373410
  C    -0.018621    1.891869    1.026883
  C    -0.196975    0.538762    0.731304
  O    -0.807834   -0.270072    1.709193
  C    -1.021947   -1.625128    1.494475
  O    -1.554810   -2.328768    2.348498
  H     0.326918   -1.810149   -1.690275
  H     1.145731    0.479864   -2.373731
  H     1.452993    2.848351   -1.845057
  H    -0.351113    2.277625    1.988879
  O    -3.299566   -0.670767   -5.024313
  H    -2.533885   -1.264647   -5.024313
  H    -4.060809   -1.270324   -5.024313

----------------------------
CARTESIAN COORDINATES (A.U.)
----------------------------
  NO LB    ZA    FRAG    MASS        X           Y           Z
   0 N   7.0000    0    14.007   -1.765116   -8.861205   -0.568454
   1 C   6.0000    0    12.011   -1.492013   -6.736492   -0.088402
   2 C   6.0000    0    12.011   -1.098378   -4.121471    0.370756
   3 C   6.0000    0    12.011    0.000537   -2.667433   -1.388963
   4 C   6.0000    0    12.011    0.397233    0.003924   -0.907503
   5 C   6.0000    0    12.011    1.525540    1.593963   -2.663769
   6 C   6.0000    0    12.011    1.856422    4.160299   -2.086247
   7 C   6.0000    0    12.011    1.097703    5.254891    0.220451
   8 O   8.0000    0    15.999    1.416285    7.589625    0.705642
   9 C   6.0000    0    12.011   -0.035189    3.575114    1.940528
  10 C   6.0000    0    12.011   -0.372228    1.018113    1.381964
  11 O   8.0000    0    15.999   -1.526585   -0.510361    3.229906
  12 C   6.0000    0    12.011   -1.931200   -3.071047    2.824148
  13 O   8.0000    0    15.999   -2.938165   -4.400735    4.438018
  14 H   1.0000    0     1.008    0.617786   -3.420685   -3.194156
  15 H   1.0000    0     1.008    2.165118    0.906811   -4.485702
  16 H   1.0000    0     1.008    2.745758    5.382603   -3.486651
  17 H   1.0000    0     1.008   -0.663507    4.304088    3.758436
  18 O   8.0000    0    15.999   -6.235276   -1.267566   -9.494575
  19 H   1.0000    0     1.008   -4.788350   -2.389836   -9.494575
  20 H   1.0000    0     1.008   -7.673818   -2.400565   -9.494575

      -----------------------------------------------------------      
     |                   =====================                   |     
     |                           x T B                           |     
     |                   =====================                   |     
     |                         S. Grimme                         |     
     |          Mulliken Center for Theoretical Chemistry        |     
     |                    University of Bonn                     |     
      -----------------------------------------------------------      

   * xtb version 6.6.1 (8d0f1dd) compiled by 'stahn@M-Bot' on 2023-08-01

   xtb is free software: you can redistribute it and/or modify it under
   the terms of the GNU Lesser General Public License as published by
   the Free Software Foundation, either version 3 of the License, or
   (at your option) any later version.
   
   xtb is distributed in the hope that it will be useful,
   but WITHOUT ANY WARRANTY; without even the implied warranty of
   MERCHANTABILITY or FITNESS FOR A PARTICULAR PURPOSE.  See the
   GNU Lesser General Public License for more details.
   
   Cite this work as:
   * C. Bannwarth, E. Caldeweyher, S. Ehlert, A. Hansen, P. Pracht,
     J. Seibert, S. Spicher, S. Grimme, WIREs Comput. Mol. Sci., 2020, 11,
     e01493. DOI: 10.1002/wcms.1493
   
   for GFN2-xTB:
   * C. Bannwarth, S. Ehlert and S. Grimme., J. Chem. Theory Comput., 2019,
     15, 1652-1671. DOI: 10.1021/acs.jctc.8b01176
   for GFN1-xTB:
   * S. Grimme, C. Bannwarth, P. Shushkov, J. Chem. Theory Comput., 2017,
     13, 1989-2009. DOI: 10.1021/acs.jctc.7b00118
   for GFN0-xTB:
   * P. Pracht, E. Caldeweyher, S. Ehlert, S. Grimme, ChemRxiv, 2019, preprint.
     DOI: 10.26434/chemrxiv.8326202.v1
   for GFN-FF:
   * S. Spicher and S. Grimme, Angew. Chem. Int. Ed., 2020, 59, 15665-15673.
     DOI: 10.1002/anie.202004239
   
   for ALPB and GBSA implicit solvation:
   * S. Ehlert, M. Stahn, S. Spicher, S. Grimme, J. Chem. Theory Comput.,
     2021, 17, 4250-4261. DOI: 10.1021/acs.jctc.1c00471
   
   for DFT-D4:
   * E. Caldeweyher, C. Bannwarth and S. Grimme, J. Chem. Phys., 2017,
     147, 034112. DOI: 10.1063/1.4993215
   * E. Caldeweyher, S. Ehlert, A. Hansen, H. Neugebauer, S. Spicher,
     C. Bannwarth and S. Grimme, J. Chem. Phys., 2019, 150, 154122.
     DOI: 10.1063/1.5090222
   * E. Caldeweyher, J.-M. Mewes, S. Ehlert and S. Grimme, Phys. Chem. Chem. Phys.
     2020, 22, 8499-8512. DOI: 10.1039/D0CP00502A
   
   for sTDA-xTB:
   * S. Grimme and C. Bannwarth, J. Chem. Phys., 2016, 145, 054103.
     DOI: 10.1063/1.4959605
   
   in the mass-spec context:
   * V. Asgeirsson, C. Bauer and S. Grimme, Chem. Sci., 2017, 8, 4879.
     DOI: 10.1039/c7sc00601b
   * J. Koopman and S. Grimme, ACS Omega 2019, 4, 12, 15120-15133.
     DOI: 10.1021/acsomega.9b02011
   
   for metadynamics refer to:
   * S. Grimme, J. Chem. Theory Comput., 2019, 155, 2847-2862
     DOI: 10.1021/acs.jctc.9b00143
   
   for SPH calculations refer to:
   * S. Spicher and S. Grimme, J. Chem. Theory Comput., 2021, 17, 1701-1714
     DOI: 10.1021/acs.jctc.0c01306
   
   with help from (in alphabetical order)
   P. Atkinson, C. Bannwarth, F. Bohle, G. Brandenburg, E. Caldeweyher
   M. Checinski, S. Dohm, S. Ehlert, S. Ehrlich, I. Gerasimov, C. Hölzer
   A. Katbashev, J. Koopman, C. Lavigne, S. Lehtola, F. März, M. Müller,
   F. Musil, H. Neugebauer, J. Pisarek, C. Plett, P. Pracht, F. Pultar,
   J. Seibert, P. Shushkov, S. Spicher, M. Stahn, M. Steiner, T. Strunk,
   J. Stückrath, T. Rose, and J. Unsleber
   
 * started run on 2025/01/14 at 21:07:10.201     

           -------------------------------------------------
          |                Calculation Setup                |
           -------------------------------------------------

          program call               : /home/jang/cal_tmp/10_orca/orca_5_0_4_linux_x86-64_shared_openmpi411/otool_xtb /home/jang/cal_tmp/10_orca/Gen_chromophore/Gen_molecular_pairs_cal/mol_2_7.xyz/input_XTB.xyz --grad -c 0 -u 0 -P 4 --namespace /home/jang/cal_tmp/10_orca/Gen_chromophore/Gen_molecular_pairs_cal/mol_2_7.xyz/input --input /home/jang/cal_tmp/10_orca/Gen_chromophore/Gen_molecular_pairs_cal/mol_2_7.xyz/input_XTB.input.tmp --acc 1.000000
          hostname                   : node02
          calculation namespace      : /home/jang/cal_tmp/10_orca/Gen_chromophore/Gen_molecular_pairs_cal/mol_2_7.xyz/input
          coordinate file            : /home/jang/cal_tmp/10_orca/Gen_chromophore/Gen_molecular_pairs_cal/mol_2_7.xyz/input_XTB.xyz
          omp threads                :                     4

   ID    Z sym.   atoms
    1    7 N      1
    2    6 C      2-8, 10, 11, 13
    3    8 O      9, 12, 14, 19
    4    1 H      15-18, 20, 21

molecular fragmentation (1/2 indicates fragments):
111111111111111111222
# atoms in fragment 1/2:    18     3
 fragment masses (1/2) :      186.14       18.02
CMA distance (Bohr)    :  11.721
constraining FC (au)   :  0.0500

           -------------------------------------------------
          |                 G F N 2 - x T B                 |
           -------------------------------------------------

        Reference                      10.1021/acs.jctc.8b01176
      * Hamiltonian:
        H0-scaling (s, p, d)           1.850000    2.230000    2.230000
        zeta-weighting                 0.500000
      * Dispersion:
        s8                             2.700000
        a1                             0.520000
        a2                             5.000000
        s9                             5.000000
      * Repulsion:
        kExp                           1.500000    1.000000
        rExp                           1.000000
      * Coulomb:
        alpha                          2.000000
        third order                    shell-resolved
        anisotropic                    true
        a3                             3.000000
        a5                             4.000000
        cn-shift                       1.200000
        cn-exp                         4.000000
        max-rad                        5.000000


          ...................................................
          :                      SETUP                      :
          :.................................................:
          :  # basis functions                  66          :
          :  # atomic orbitals                  66          :
          :  # shells                           36          :
          :  # electrons                        75          :
          :  max. iterations                   250          :
          :  Hamiltonian                  GFN2-xTB          :
          :  restarted?                      false          :
          :  GBSA solvation                  false          :
          :  PC potential                    false          :
          :  electronic temp.          300.0000000     K    :
          :  accuracy                    1.0000000          :
          :  -> integral cutoff          0.2500000E+02      :
          :  -> integral neglect         0.1000000E-07      :
          :  -> SCF convergence          0.1000000E-05 Eh   :
          :  -> wf. convergence          0.1000000E-03 e    :
          :  Broyden damping             0.4000000          :
          ...................................................

 iter      E             dE          RMSdq      gap      omega  full diag
   1    -43.9730324 -0.439730E+02  0.628E+00    2.72       0.0  T
   2    -43.9339052  0.391272E-01  0.380E+00    1.58       1.0  T
   3    -43.9223869  0.115183E-01  0.330E+00    2.80       1.0  T
   4    -44.0637108 -0.141324E+00  0.153E+00    2.06       1.0  T
   5    -44.0927902 -0.290793E-01  0.746E-01    2.33       1.0  T
   6    -44.0947101 -0.191995E-02  0.590E-01    2.22       1.0  T
   7    -44.0952270 -0.516873E-03  0.310E-01    2.23       1.0  T
   8    -44.0959705 -0.743468E-03  0.785E-02    2.20       1.0  T
   9    -44.0960768 -0.106381E-03  0.328E-02    2.22       1.0  T
  10    -44.0960855 -0.868813E-05  0.159E-02    2.22       1.4  T
  11    -44.0960891 -0.353517E-05  0.402E-03    2.21       5.4  T
  12    -44.0960891 -0.412690E-07  0.227E-03    2.21       9.6  T
  13    -44.0960891 -0.243753E-07  0.113E-03    2.21      19.4  T
  14    -44.0960891 -0.433749E-08  0.451E-04    2.21      48.4  T
  15    -44.0960891 -0.254502E-08  0.194E-04    2.21     112.3  T

   *** convergence criteria satisfied after 15 iterations ***

         #    Occupation            Energy/Eh            Energy/eV
      -------------------------------------------------------------
         1        2.0000           -0.7842961             -21.3418
       ...           ...                  ...                  ...
        32        2.0000           -0.4773160             -12.9884
        33        2.0000           -0.4651569             -12.6576
        34        2.0000           -0.4595035             -12.5037
        35        2.0000           -0.4569326             -12.4338
        36        2.0000           -0.4513270             -12.2812
        37        1.9934           -0.4317157             -11.7476
        38        1.0066           -0.4221813             -11.4881 (HOMO)
        39                         -0.3408805              -9.2758 (LUMO)
        40                         -0.2962267              -8.0607
        41                         -0.2732173              -7.4346
        42                         -0.2528175              -6.8795
        43                         -0.2443959              -6.6503
       ...                                ...                  ...
        66                          1.0522629              28.6335
      -------------------------------------------------------------
                  HL-Gap            0.0813008 Eh            2.2123 eV
             Fermi-level           -0.4042397 Eh          -10.9999 eV

 SCC (total)                   0 d,  0 h,  0 min,  0.042 sec
 SCC setup                      ...        0 min,  0.000 sec (  1.035%)
 Dispersion                     ...        0 min,  0.000 sec (  1.085%)
 classical contributions        ...        0 min,  0.000 sec (  0.222%)
 integral evaluation            ...        0 min,  0.002 sec (  4.960%)
 iterations                     ...        0 min,  0.035 sec ( 83.060%)
 molecular gradient             ...        0 min,  0.004 sec (  8.350%)
 printout                       ...        0 min,  0.000 sec (  1.097%)

         :::::::::::::::::::::::::::::::::::::::::::::::::::::
         ::                     SUMMARY                     ::
         :::::::::::::::::::::::::::::::::::::::::::::::::::::
         :: total energy             -43.529317111500 Eh    ::
         :: gradient norm              0.153170341936 Eh/a0 ::
         :: HOMO-LUMO gap              2.212308603442 eV    ::
         ::.................................................::
         :: SCC energy               -44.096089133104 Eh    ::
         :: -> isotropic ES            0.104920883514 Eh    ::
         :: -> anisotropic ES          0.002058580449 Eh    ::
         :: -> anisotropic XC          0.022642185014 Eh    ::
         :: -> dispersion             -0.018730502123 Eh    ::
         :: repulsion energy           0.566727000534 Eh    ::
         :: add. restraining           0.000000000000 Eh    ::
         :: total charge               0.000000000007 e     ::
         :::::::::::::::::::::::::::::::::::::::::::::::::::::


Property printout bound to 'properties.out'

           -------------------------------------------------
          | TOTAL ENERGY              -43.529317111500 Eh   |
          | GRADIENT NORM               0.153170341936 Eh/α |
          | HOMO-LUMO GAP               2.212308603442 eV   |
           -------------------------------------------------

------------------------------------------------------------------------
 * finished run on 2025/01/14 at 21:07:11.298     
------------------------------------------------------------------------
 total:
 * wall-time:     0 d,  0 h,  0 min,  1.095 sec
 *  cpu-time:     0 d,  0 h,  0 min,  1.878 sec
 * ratio c/w:     1.715 speedup
 SCF:
 * wall-time:     0 d,  0 h,  0 min,  0.043 sec
 *  cpu-time:     0 d,  0 h,  0 min,  0.168 sec
 * ratio c/w:     3.935 speedup


-------------------------   --------------------
FINAL SINGLE POINT ENERGY       -43.529317111500
-------------------------   --------------------

------------------------------------------------------------------------------
                         ORCA GEOMETRY RELAXATION STEP
------------------------------------------------------------------------------

Reading the OPT-File                    .... done
Getting information on internals        .... done
Copying old internal coords+grads       .... done
Making the new internal coordinates     .... (new redundants).... done
Validating the new internal coordinates .... (new redundants).... done
Calculating the B-matrix                .... done
Calculating the G,G- and P matrices     .... done
Transforming gradient to internals      .... done
Projecting the internal gradient        .... done
Number of atoms                         ....  21
Number of internal coordinates          .... 115
Current Energy                          ....   -43.529317111 Eh
Current gradient norm                   ....     0.153170342 Eh/bohr
Maximum allowed component of the step   ....  0.300
Current trust radius                    ....  0.300
Evaluating the initial hessian          ....  (Almloef) done
Projecting the Hessian                  .... done
Forming the augmented Hessian           .... done
Diagonalizing the augmented Hessian     .... done
Last element of RFO vector              ....  0.985591695
Lowest eigenvalues of augmented Hessian:
 -0.018030180  0.000000509  0.001263608  0.002986513  0.011844636
Length of the computed step             ....  0.171614662
The final length of the internal step   ....  0.171614662
Converting the step to cartesian space:
 Initial RMS(Int)=    0.0160031498
Transforming coordinates:
 Iter   0:  RMS(Cart)=    0.0345353045 RMS(Int)=    1.8526629825
 Iter   1:  RMS(Cart)=    0.0002929984 RMS(Int)=    0.5859032954
 Iter   2:  RMS(Cart)=    0.0000059523 RMS(Int)=    0.0000039975
 Iter   3:  RMS(Cart)=    0.0000010363 RMS(Int)=    0.0000007358
 Iter   4:  RMS(Cart)=    0.0000005082 RMS(Int)=    0.0000003615
 Iter   5:  RMS(Cart)=    0.0000002508 RMS(Int)=    0.0000001784
 Iter   6:  RMS(Cart)=    0.0000001238 RMS(Int)=    0.0000000880
 Iter   7:  RMS(Cart)=    0.0000000611 RMS(Int)=    0.0000000434
done
Storing new coordinates                 .... done

                                .--------------------.
          ----------------------|Geometry convergence|-------------------------
          Item                value                   Tolerance       Converged
          ---------------------------------------------------------------------
          RMS gradient        0.0104429963            0.0001000000      NO
          MAX gradient        0.0452421923            0.0003000000      NO
          RMS step            0.0160031498            0.0020000000      NO
          MAX step            0.0564955104            0.0040000000      NO
          ........................................................
          Max(Bonds)      0.0299      Max(Angles)    1.36
          Max(Dihed)        1.04      Max(Improp)    0.00
          ---------------------------------------------------------------------

The optimization has not yet converged - more geometry cycles are needed


    ---------------------------------------------------------------------------
                         Redundant Internal Coordinates
                            (Angstroem and degrees)

        Definition                    Value    dE/dq     Step     New-Value
    ----------------------------------------------------------------------------
     1. B(C   1,N   0)                1.1617  0.039237 -0.0158    1.1459   
     2. B(C   2,C   1)                1.4203  0.006703 -0.0061    1.4142   
     3. B(C   3,C   2)                1.3407 -0.018299  0.0132    1.3538   
     4. B(C   4,C   3)                1.4517  0.020749 -0.0207    1.4309   
     5. B(C   5,C   4)                1.3886 -0.018406  0.0152    1.4038   
     6. B(C   6,C   5)                1.4030  0.034513 -0.0299    1.3731   
     7. B(C   7,C   6)                1.4095 -0.028684  0.0252    1.4347   
     8. B(O   8,C   7)                1.2731  0.036881 -0.0222    1.2509   
     9. B(C   9,C   7)                1.4064 -0.027167  0.0237    1.4301   
    10. B(C  10,C   9)                1.3965  0.025849 -0.0216    1.3748   
    11. B(C  10,C   4)                1.3862 -0.022955  0.0190    1.4053   
    12. B(O  11,C  10)                1.4084  0.029161 -0.0293    1.3791   
    13. B(C  12,C   2)                1.4794  0.001411 -0.0019    1.4775   
    14. B(C  12,O  11)                1.3886  0.025668 -0.0244    1.3641   
    15. B(O  13,C  12)                1.2282  0.045242 -0.0232    1.2050   
    16. B(H  14,C   3)                1.0854  0.002534 -0.0038    1.0816   
    17. B(H  15,C   5)                1.0846  0.004115 -0.0060    1.0786   
    18. B(H  16,C   6)                1.0904  0.005810 -0.0081    1.0823   
    19. B(H  17,C   9)                1.0885  0.004997 -0.0070    1.0815   
    20. B(O  18,H  15)                5.3019 -0.000123 -0.0034    5.2985   
    21. B(O  18,H  14)                5.0562  0.001374 -0.0051    5.0511   
    22. B(O  18,C   3)                5.4622  0.000020 -0.0063    5.4559   
    23. B(H  19,H  15)                4.8589 -0.000540  0.0021    4.8609   
    24. B(H  19,H  14)                4.4269 -0.001487  0.0045    4.4314   
    25. B(H  19,C   5)                5.3548 -0.000269  0.0014    5.3561   
    26. B(H  19,C   4)                5.4574  0.002548 -0.0022    5.4553   
    27. B(H  19,C   3)                4.9841 -0.001255  0.0026    4.9867   
    28. B(H  19,O  18)                0.9690  0.006212 -0.0072    0.9618   
    29. B(H  20,O  18)                0.9690  0.007121 -0.0072    0.9618   
    30. L(N   0,C   1,C   2,C   3, 1) 176.97 -0.000321    0.04    177.00   
    31. L(N   0,C   1,C   2,C   3, 2) 180.00  0.000080   -0.01    179.99   
    32. A(C   3,C   2,C  12)          121.54  0.001384   -0.02    121.52   
    33. A(C   1,C   2,C   3)          120.26 -0.003407    0.36    120.62   
    34. A(C   1,C   2,C  12)          118.20  0.002023   -0.34    117.85   
    35. A(C   2,C   3,O  18)          111.18 -0.000445   -0.09    111.09   
    36. A(C   2,C   3,C   4)          119.98  0.004129   -0.44    119.55   
    37. A(C   2,C   3,H  14)          122.08 -0.001442    0.11    122.18   
    38. A(C   4,C   3,H  14)          117.94 -0.002687    0.33    118.27   
    39. A(C   4,C   3,O  18)           95.34 -0.002560    0.23     95.57   
    40. A(H  14,C   3,O  18)           62.64  0.001051    0.00     62.65   
    41. A(C   5,C   4,C  10)          118.47 -0.005687    0.60    119.07   
    42. A(C   3,C   4,C  10)          119.20  0.006749   -0.73    118.47   
    43. A(C   3,C   4,C   5)          122.33 -0.001062    0.13    122.46   
    44. A(C   4,C   5,C   6)          119.63 -0.002243    0.32    119.95   
    45. A(C   6,C   5,H  15)          118.63 -0.001756    0.24    118.87   
    46. A(C   4,C   5,H  15)          121.73  0.003999   -0.56    121.18   
    47. A(C   7,C   6,H  16)          117.89 -0.003154    0.41    118.30   
    48. A(C   5,C   6,H  16)          118.69 -0.004061    0.55    119.24   
    49. A(C   5,C   6,C   7)          123.43  0.007215   -0.97    122.46   
    50. A(O   8,C   7,C   9)          122.63  0.004810   -0.62    122.01   
    51. A(C   6,C   7,C   9)          114.97 -0.008773    1.14    116.12   
    52. A(C   6,C   7,O   8)          122.39  0.003964   -0.52    121.87   
    53. A(C  10,C   9,H  17)          119.44 -0.002214    0.23    119.66   
    54. A(C   7,C   9,H  17)          118.57 -0.005446    0.73    119.30   
    55. A(C   7,C   9,C  10)          122.00  0.007660   -0.96    121.04   
    56. A(C   4,C  10,O  11)          120.79 -0.005563    0.69    121.48   
    57. A(C   4,C  10,C   9)          121.51  0.001829   -0.14    121.37   
    58. A(C   9,C  10,O  11)          117.70  0.003734   -0.56    117.15   
    59. A(C  10,O  11,C  12)          121.33 -0.005474    0.47    121.79   
    60. A(O  11,C  12,O  13)          121.23  0.011652   -1.36    119.87   
    61. A(C   2,C  12,O  13)          121.61 -0.010428    1.33    122.95   
    62. A(C   2,C  12,O  11)          117.16 -0.001225    0.03    117.18   
    63. A(H  19,O  18,H  20)          103.98 -0.003128    1.03    105.01   
    64. A(C   3,O  18,H  20)          113.00 -0.002716    0.59    113.58   
    65. A(C   3,O  18,H  19)           55.91  0.000802    0.37     56.29   
    66. D(C   4,C   3,C   2,C  12)     -0.00 -0.000250   -0.06     -0.06   
    67. D(H  14,C   3,C   2,C  12)   -180.00  0.000128    0.00   -180.00   
    68. D(C   4,C   3,C   2,C   1)   -180.00 -0.000267   -0.13   -180.13   
    69. D(O  18,C   3,C   2,C  12)   -109.80  0.000882   -0.02   -109.83   
    70. D(H  14,C   3,C   2,C   1)      0.00  0.000112   -0.07     -0.07   
    71. D(O  18,C   3,C   2,C   1)     70.20  0.000865   -0.10     70.10   
    72. D(C   5,C   4,C   3,C   2)   -180.00 -0.000143    0.09   -179.91   
    73. D(C  10,C   4,C   3,C   2)      0.00  0.000139    0.08      0.08   
    74. D(C  10,C   4,C   3,H  14)   -180.00 -0.000224    0.03   -179.97   
    75. D(C   5,C   4,C   3,H  14)     -0.00 -0.000506    0.03      0.03   
    76. D(C   5,C   4,C   3,O  18)    -61.78 -0.000778   -0.04    -61.82   
    77. D(C  10,C   4,C   3,O  18)    118.22 -0.000495   -0.04    118.17   
    78. D(H  15,C   5,C   4,C   3)      0.00 -0.000179    0.04      0.04   
    79. D(C   6,C   5,C   4,C  10)      0.00 -0.000215    0.03      0.03   
    80. D(C   6,C   5,C   4,C   3)   -180.00  0.000065    0.03   -179.97   
    81. D(H  15,C   5,C   4,C  10)   -180.00 -0.000460    0.04   -179.96   
    82. D(H  16,C   6,C   5,H  15)     -0.00  0.000205    0.01      0.01   
    83. D(H  16,C   6,C   5,C   4)    180.00 -0.000032    0.02    180.02   
    84. D(C   7,C   6,C   5,H  15)    180.00  0.000275    0.00    180.00   
    85. D(C   7,C   6,C   5,C   4)     -0.00  0.000038    0.00      0.00   
    86. D(C   9,C   7,C   6,H  16)   -180.00  0.000184   -0.04   -180.04   
    87. D(C   9,C   7,C   6,C   5)      0.00  0.000114   -0.03     -0.03   
    88. D(O   8,C   7,C   6,H  16)      0.00  0.000112   -0.09     -0.09   
    89. D(O   8,C   7,C   6,C   5)   -180.00  0.000042   -0.08   -180.08   
    90. D(H  17,C   9,C   7,O   8)      0.00 -0.000051    0.07      0.07   
    91. D(H  17,C   9,C   7,C   6)    180.00 -0.000124    0.02    180.02   
    92. D(C  10,C   9,C   7,O   8)   -180.00 -0.000019    0.07   -179.93   
    93. D(C  10,C   9,C   7,C   6)     -0.00 -0.000091    0.02      0.02   
    94. D(O  11,C  10,C   4,C   3)     -0.00 -0.000009   -0.03     -0.03   
    95. D(C   9,C  10,C   4,C   5)      0.00  0.000240   -0.05     -0.05   
    96. D(C   9,C  10,C   4,C   3)    180.00 -0.000031   -0.04    179.96   
    97. D(O  11,C  10,C   9,H  17)     -0.00 -0.000074    0.01      0.00   
    98. D(O  11,C  10,C   9,C   7)    180.00 -0.000106    0.01    180.01   
    99. D(C   4,C  10,C   9,H  17)    180.00 -0.000052    0.02    180.02   
   100. D(C   4,C  10,C   9,C   7)     -0.00 -0.000084    0.02      0.02   
   101. D(O  11,C  10,C   4,C   5)   -180.00  0.000263   -0.03   -180.03   
   102. D(C  12,O  11,C  10,C   9)    180.00  0.000017   -0.04    179.96   
   103. D(C  12,O  11,C  10,C   4)     -0.00 -0.000005   -0.05     -0.05   
   104. D(O  13,C  12,O  11,C  10)   -180.00  0.000102    0.04   -179.96   
   105. D(C   2,C  12,O  11,C  10)      0.00 -0.000098    0.07      0.07   
   106. D(O  13,C  12,C   2,C   3)    180.00  0.000030    0.01    180.01   
   107. D(O  13,C  12,C   2,C   1)     -0.00  0.000047    0.09      0.09   
   108. D(O  11,C  12,C   2,C   3)     -0.00  0.000230   -0.02     -0.02   
   109. D(O  11,C  12,C   2,C   1)    180.00  0.000247    0.06    180.06   
   110. D(H  20,O  18,C   3,H  14)    103.34 -0.000852    0.79    104.13   
   111. D(H  20,O  18,C   3,C   4)   -137.87 -0.002721    1.04   -136.83   
   112. D(H  20,O  18,C   3,C   2)    -12.81  0.000434    0.63    -12.18   
   113. D(H  19,O  18,C   3,H  14)     11.65  0.001003   -0.29     11.36   
   114. D(H  19,O  18,C   3,C   4)    130.43 -0.000866   -0.04    130.39   
   115. D(H  19,O  18,C   3,C   2)   -104.51  0.002288   -0.44   -104.95   
    ----------------------------------------------------------------------------

         *************************************************************
         *                GEOMETRY OPTIMIZATION CYCLE   2            *
         *************************************************************
---------------------------------
CARTESIAN COORDINATES (ANGSTROEM)
---------------------------------
  N    -0.939347   -4.656176   -0.269912
  C    -0.790414   -3.545498   -0.030563
  C    -0.575814   -2.166516    0.198089
  C     0.011138   -1.394022   -0.746152
  C     0.214506   -0.000671   -0.491561
  C     0.814911    0.856354   -1.427378
  C     0.985525    2.185703   -1.128973
  C     0.570393    2.753505    0.121389
  O     0.732472    3.966033    0.382474
  C    -0.037797    1.852584    1.050727
  C    -0.204783    0.523018    0.743313
  O    -0.800732   -0.273552    1.698441
  C    -1.013345   -1.605231    1.492878
  O    -1.537849   -2.268783    2.351109
  H     0.335474   -1.793645   -1.697459
  H     1.148762    0.490701   -2.385620
  H     1.449503    2.836115   -1.859055
  H    -0.370548    2.226152    2.009592
  O    -3.294820   -0.673645   -5.026209
  H    -2.532686   -1.260298   -5.033145
  H    -4.058810   -1.257866   -5.024923

----------------------------
CARTESIAN COORDINATES (A.U.)
----------------------------
  NO LB    ZA    FRAG    MASS        X           Y           Z
   0 N   7.0000    0    14.007   -1.775108   -8.798898   -0.510060
   1 C   6.0000    0    12.011   -1.493666   -6.700020   -0.057756
   2 C   6.0000    0    12.011   -1.088131   -4.094121    0.374333
   3 C   6.0000    0    12.011    0.021048   -2.634320   -1.410023
   4 C   6.0000    0    12.011    0.405358   -0.001268   -0.928916
   5 C   6.0000    0    12.011    1.539959    1.618275   -2.697354
   6 C   6.0000    0    12.011    1.862372    4.130380   -2.133449
   7 C   6.0000    0    12.011    1.077887    5.203370    0.229393
   8 O   8.0000    0    15.999    1.384171    7.494716    0.722771
   9 C   6.0000    0    12.011   -0.071426    3.500877    1.985586
  10 C   6.0000    0    12.011   -0.386984    0.988360    1.404657
  11 O   8.0000    0    15.999   -1.513164   -0.516938    3.209589
  12 C   6.0000    0    12.011   -1.914945   -3.033446    2.821130
  13 O   8.0000    0    15.999   -2.906114   -4.287379    4.442952
  14 H   1.0000    0     1.008    0.633954   -3.389498   -3.207732
  15 H   1.0000    0     1.008    2.170846    0.927290   -4.508169
  16 H   1.0000    0     1.008    2.739163    5.359480   -3.513104
  17 H   1.0000    0     1.008   -0.700235    4.206817    3.797579
  18 O   8.0000    0    15.999   -6.226307   -1.273004   -9.498159
  19 H   1.0000    0     1.008   -4.786083   -2.381618   -9.511265
  20 H   1.0000    0     1.008   -7.670040   -2.377022   -9.495728

      -----------------------------------------------------------      
     |                   =====================                   |     
     |                           x T B                           |     
     |                   =====================                   |     
     |                         S. Grimme                         |     
     |          Mulliken Center for Theoretical Chemistry        |     
     |                    University of Bonn                     |     
      -----------------------------------------------------------      

   * xtb version 6.6.1 (8d0f1dd) compiled by 'stahn@M-Bot' on 2023-08-01

   xtb is free software: you can redistribute it and/or modify it under
   the terms of the GNU Lesser General Public License as published by
   the Free Software Foundation, either version 3 of the License, or
   (at your option) any later version.
   
   xtb is distributed in the hope that it will be useful,
   but WITHOUT ANY WARRANTY; without even the implied warranty of
   MERCHANTABILITY or FITNESS FOR A PARTICULAR PURPOSE.  See the
   GNU Lesser General Public License for more details.
   
   Cite this work as:
   * C. Bannwarth, E. Caldeweyher, S. Ehlert, A. Hansen, P. Pracht,
     J. Seibert, S. Spicher, S. Grimme, WIREs Comput. Mol. Sci., 2020, 11,
     e01493. DOI: 10.1002/wcms.1493
   
   for GFN2-xTB:
   * C. Bannwarth, S. Ehlert and S. Grimme., J. Chem. Theory Comput., 2019,
     15, 1652-1671. DOI: 10.1021/acs.jctc.8b01176
   for GFN1-xTB:
   * S. Grimme, C. Bannwarth, P. Shushkov, J. Chem. Theory Comput., 2017,
     13, 1989-2009. DOI: 10.1021/acs.jctc.7b00118
   for GFN0-xTB:
   * P. Pracht, E. Caldeweyher, S. Ehlert, S. Grimme, ChemRxiv, 2019, preprint.
     DOI: 10.26434/chemrxiv.8326202.v1
   for GFN-FF:
   * S. Spicher and S. Grimme, Angew. Chem. Int. Ed., 2020, 59, 15665-15673.
     DOI: 10.1002/anie.202004239
   
   for ALPB and GBSA implicit solvation:
   * S. Ehlert, M. Stahn, S. Spicher, S. Grimme, J. Chem. Theory Comput.,
     2021, 17, 4250-4261. DOI: 10.1021/acs.jctc.1c00471
   
   for DFT-D4:
   * E. Caldeweyher, C. Bannwarth and S. Grimme, J. Chem. Phys., 2017,
     147, 034112. DOI: 10.1063/1.4993215
   * E. Caldeweyher, S. Ehlert, A. Hansen, H. Neugebauer, S. Spicher,
     C. Bannwarth and S. Grimme, J. Chem. Phys., 2019, 150, 154122.
     DOI: 10.1063/1.5090222
   * E. Caldeweyher, J.-M. Mewes, S. Ehlert and S. Grimme, Phys. Chem. Chem. Phys.
     2020, 22, 8499-8512. DOI: 10.1039/D0CP00502A
   
   for sTDA-xTB:
   * S. Grimme and C. Bannwarth, J. Chem. Phys., 2016, 145, 054103.
     DOI: 10.1063/1.4959605
   
   in the mass-spec context:
   * V. Asgeirsson, C. Bauer and S. Grimme, Chem. Sci., 2017, 8, 4879.
     DOI: 10.1039/c7sc00601b
   * J. Koopman and S. Grimme, ACS Omega 2019, 4, 12, 15120-15133.
     DOI: 10.1021/acsomega.9b02011
   
   for metadynamics refer to:
   * S. Grimme, J. Chem. Theory Comput., 2019, 155, 2847-2862
     DOI: 10.1021/acs.jctc.9b00143
   
   for SPH calculations refer to:
   * S. Spicher and S. Grimme, J. Chem. Theory Comput., 2021, 17, 1701-1714
     DOI: 10.1021/acs.jctc.0c01306
   
   with help from (in alphabetical order)
   P. Atkinson, C. Bannwarth, F. Bohle, G. Brandenburg, E. Caldeweyher
   M. Checinski, S. Dohm, S. Ehlert, S. Ehrlich, I. Gerasimov, C. Hölzer
   A. Katbashev, J. Koopman, C. Lavigne, S. Lehtola, F. März, M. Müller,
   F. Musil, H. Neugebauer, J. Pisarek, C. Plett, P. Pracht, F. Pultar,
   J. Seibert, P. Shushkov, S. Spicher, M. Stahn, M. Steiner, T. Strunk,
   J. Stückrath, T. Rose, and J. Unsleber
   
 * started run on 2025/01/14 at 21:07:26.599     

           -------------------------------------------------
          |                Calculation Setup                |
           -------------------------------------------------

          program call               : /home/jang/cal_tmp/10_orca/orca_5_0_4_linux_x86-64_shared_openmpi411/otool_xtb /home/jang/cal_tmp/10_orca/Gen_chromophore/Gen_molecular_pairs_cal/mol_2_7.xyz/input_XTB.xyz --grad -c 0 -u 0 -P 4 --namespace /home/jang/cal_tmp/10_orca/Gen_chromophore/Gen_molecular_pairs_cal/mol_2_7.xyz/input --input /home/jang/cal_tmp/10_orca/Gen_chromophore/Gen_molecular_pairs_cal/mol_2_7.xyz/input_XTB.input.tmp --acc 1.000000
          hostname                   : node02
          calculation namespace      : /home/jang/cal_tmp/10_orca/Gen_chromophore/Gen_molecular_pairs_cal/mol_2_7.xyz/input
          coordinate file            : /home/jang/cal_tmp/10_orca/Gen_chromophore/Gen_molecular_pairs_cal/mol_2_7.xyz/input_XTB.xyz
          omp threads                :                     4

   ID    Z sym.   atoms
    1    7 N      1
    2    6 C      2-8, 10, 11, 13
    3    8 O      9, 12, 14, 19
    4    1 H      15-18, 20, 21

molecular fragmentation (1/2 indicates fragments):
111111111111111111222
# atoms in fragment 1/2:    18     3
 fragment masses (1/2) :      186.14       18.02
CMA distance (Bohr)    :  11.724
constraining FC (au)   :  0.0500

           -------------------------------------------------
          |                 G F N 2 - x T B                 |
           -------------------------------------------------

        Reference                      10.1021/acs.jctc.8b01176
      * Hamiltonian:
        H0-scaling (s, p, d)           1.850000    2.230000    2.230000
        zeta-weighting                 0.500000
      * Dispersion:
        s8                             2.700000
        a1                             0.520000
        a2                             5.000000
        s9                             5.000000
      * Repulsion:
        kExp                           1.500000    1.000000
        rExp                           1.000000
      * Coulomb:
        alpha                          2.000000
        third order                    shell-resolved
        anisotropic                    true
        a3                             3.000000
        a5                             4.000000
        cn-shift                       1.200000
        cn-exp                         4.000000
        max-rad                        5.000000

q/qsh data taken from xtbrestart
CAMM data taken from xtbrestart

          ...................................................
          :                      SETUP                      :
          :.................................................:
          :  # basis functions                  66          :
          :  # atomic orbitals                  66          :
          :  # shells                           36          :
          :  # electrons                        75          :
          :  max. iterations                   250          :
          :  Hamiltonian                  GFN2-xTB          :
          :  restarted?                       true          :
          :  GBSA solvation                  false          :
          :  PC potential                    false          :
          :  electronic temp.          300.0000000     K    :
          :  accuracy                    1.0000000          :
          :  -> integral cutoff          0.2500000E+02      :
          :  -> integral neglect         0.1000000E-07      :
          :  -> SCF convergence          0.1000000E-05 Eh   :
          :  -> wf. convergence          0.1000000E-03 e    :
          :  Broyden damping             0.4000000          :
          ...................................................

 iter      E             dE          RMSdq      gap      omega  full diag
   1    -44.1348425 -0.441348E+02  0.280E-01    2.22       0.0  T
   2    -44.1351459 -0.303377E-03  0.177E-01    2.22       1.0  T
   3    -44.1351960 -0.500911E-04  0.990E-02    2.22       1.0  T
   4    -44.1352178 -0.218091E-04  0.291E-02    2.22       1.0  T
   5    -44.1352308 -0.129954E-04  0.108E-02    2.22       2.0  T
   6    -44.1352328 -0.198522E-05  0.450E-03    2.22       4.9  T
   7    -44.1352329 -0.143585E-06  0.270E-03    2.22       8.1  T
   8    -44.1352330 -0.466341E-07  0.123E-03    2.22      17.7  T
   9    -44.1352330 -0.173780E-07  0.485E-04    2.22      45.0  T
  10    -44.1352330 -0.348682E-08  0.217E-04    2.22     100.5  T

   *** convergence criteria satisfied after 10 iterations ***

         #    Occupation            Energy/Eh            Energy/eV
      -------------------------------------------------------------
         1        2.0000           -0.7914337             -21.5360
       ...           ...                  ...                  ...
        32        2.0000           -0.4768190             -12.9749
        33        2.0000           -0.4633580             -12.6086
        34        2.0000           -0.4592943             -12.4980
        35        2.0000           -0.4575811             -12.4514
        36        2.0000           -0.4497024             -12.2370
        37        1.9968           -0.4292869             -11.6815
        38        1.0032           -0.4183748             -11.3846 (HOMO)
        39                         -0.3368166              -9.1652 (LUMO)
        40                         -0.2893126              -7.8726
        41                         -0.2650479              -7.2123
        42                         -0.2443461              -6.6490
        43                         -0.2410968              -6.5606
       ...                                ...                  ...
        66                          1.1337201              30.8501
      -------------------------------------------------------------
                  HL-Gap            0.0815582 Eh            2.2193 eV
             Fermi-level           -0.4007132 Eh          -10.9040 eV

 SCC (total)                   0 d,  0 h,  0 min,  0.047 sec
 SCC setup                      ...        0 min,  0.001 sec (  1.087%)
 Dispersion                     ...        0 min,  0.001 sec (  1.075%)
 classical contributions        ...        0 min,  0.000 sec (  0.159%)
 integral evaluation            ...        0 min,  0.003 sec (  5.947%)
 iterations                     ...        0 min,  0.037 sec ( 79.031%)
 molecular gradient             ...        0 min,  0.005 sec ( 11.298%)
 printout                       ...        0 min,  0.001 sec (  1.189%)

         :::::::::::::::::::::::::::::::::::::::::::::::::::::
         ::                     SUMMARY                     ::
         :::::::::::::::::::::::::::::::::::::::::::::::::::::
         :: total energy             -43.541554268235 Eh    ::
         :: gradient norm              0.069357318716 Eh/a0 ::
         :: HOMO-LUMO gap              2.219312281678 eV    ::
         ::.................................................::
         :: SCC energy               -44.135232989326 Eh    ::
         :: -> isotropic ES            0.103479500250 Eh    ::
         :: -> anisotropic ES          0.002138387937 Eh    ::
         :: -> anisotropic XC          0.021636756330 Eh    ::
         :: -> dispersion             -0.018844146266 Eh    ::
         :: repulsion energy           0.593629089488 Eh    ::
         :: add. restraining           0.000000000000 Eh    ::
         :: total charge               0.000000000001 e     ::
         :::::::::::::::::::::::::::::::::::::::::::::::::::::


Property printout bound to 'properties.out'

           -------------------------------------------------
          | TOTAL ENERGY              -43.541554268235 Eh   |
          | GRADIENT NORM               0.069357318716 Eh/α |
          | HOMO-LUMO GAP               2.219312281678 eV   |
           -------------------------------------------------

------------------------------------------------------------------------
 * finished run on 2025/01/14 at 21:07:26.806     
------------------------------------------------------------------------
 total:
 * wall-time:     0 d,  0 h,  0 min,  0.206 sec
 *  cpu-time:     0 d,  0 h,  0 min,  0.572 sec
 * ratio c/w:     2.770 speedup
 SCF:
 * wall-time:     0 d,  0 h,  0 min,  0.047 sec
 *  cpu-time:     0 d,  0 h,  0 min,  0.178 sec
 * ratio c/w:     3.788 speedup


-------------------------   --------------------
FINAL SINGLE POINT ENERGY       -43.541554268240
-------------------------   --------------------

------------------------------------------------------------------------------
                         ORCA GEOMETRY RELAXATION STEP
------------------------------------------------------------------------------

Reading the OPT-File                    .... done
Getting information on internals        .... done
Copying old internal coords+grads       .... done
Making the new internal coordinates     .... (new redundants).... done
Validating the new internal coordinates .... (new redundants).... done
Calculating the B-matrix                .... done
Calculating the G,G- and P matrices     .... done
Transforming gradient to internals      .... done
Projecting the internal gradient        .... done
Number of atoms                         ....  21
Number of internal coordinates          .... 115
Current Energy                          ....   -43.541554268 Eh
Current gradient norm                   ....     0.069357319 Eh/bohr
Maximum allowed component of the step   ....  0.300
Current trust radius                    ....  0.300
Updating the Hessian (BFGS)             .... done
Forming the augmented Hessian           .... done
Diagonalizing the augmented Hessian     .... done
Last element of RFO vector              ....  0.990914921
Lowest eigenvalues of augmented Hessian:
 -0.004875362  0.000001527  0.001270098  0.002987590  0.011849780
Length of the computed step             ....  0.135723274
The final length of the internal step   ....  0.135723274
Converting the step to cartesian space:
 Initial RMS(Int)=    0.0126562606
Transforming coordinates:
 Iter   0:  RMS(Cart)=    0.0175656946 RMS(Int)=    0.8286750215
 Iter   1:  RMS(Cart)=    0.0001559477 RMS(Int)=    0.0001041843
 Iter   2:  RMS(Cart)=    0.0000054289 RMS(Int)=    0.0000037008
 Iter   3:  RMS(Cart)=    0.0000021942 RMS(Int)=    0.0000015682
 Iter   4:  RMS(Cart)=    0.0000010905 RMS(Int)=    0.0000007796
 Iter   5:  RMS(Cart)=    0.0000005426 RMS(Int)=    0.0000003878
 Iter   6:  RMS(Cart)=    0.0000002700 RMS(Int)=    0.0000001929
 Iter   7:  RMS(Cart)=    0.0000001343 RMS(Int)=    0.0000000960
 Iter   8:  RMS(Cart)=    0.0000000668 RMS(Int)=    0.0000000477
done
Storing new coordinates                 .... done

                                .--------------------.
          ----------------------|Geometry convergence|-------------------------
          Item                value                   Tolerance       Converged
          ---------------------------------------------------------------------
          Energy change      -0.0122371567            0.0000050000      NO
          RMS gradient        0.0038960791            0.0001000000      NO
          MAX gradient        0.0200512665            0.0003000000      NO
          RMS step            0.0126562606            0.0020000000      NO
          MAX step            0.0390417673            0.0040000000      NO
          ........................................................
          Max(Bonds)      0.0207      Max(Angles)    1.27
          Max(Dihed)        1.69      Max(Improp)    0.00
          ---------------------------------------------------------------------

The optimization has not yet converged - more geometry cycles are needed


    ---------------------------------------------------------------------------
                         Redundant Internal Coordinates
                            (Angstroem and degrees)

        Definition                    Value    dE/dq     Step     New-Value
    ----------------------------------------------------------------------------
     1. B(C   1,N   0)                1.1459  0.000204 -0.0014    1.1445   
     2. B(C   2,C   1)                1.4142  0.002248 -0.0036    1.4106   
     3. B(C   3,C   2)                1.3538 -0.009902  0.0118    1.3656   
     4. B(C   4,C   3)                1.4309  0.009846 -0.0172    1.4137   
     5. B(C   5,C   4)                1.4038 -0.008805  0.0121    1.4159   
     6. B(C   6,C   5)                1.3731  0.011960 -0.0183    1.3547   
     7. B(C   7,C   6)                1.4346 -0.013594  0.0204    1.4550   
     8. B(O   8,C   7)                1.2509  0.020051 -0.0204    1.2305   
     9. B(C   9,C   7)                1.4301 -0.012510  0.0188    1.4489   
    10. B(C  10,C   9)                1.3748  0.005490 -0.0085    1.3663   
    11. B(C  10,C   4)                1.4053 -0.010871  0.0152    1.4205   
    12. B(O  11,C  10)                1.3791  0.012001 -0.0207    1.3585   
    13. B(C  12,C   2)                1.4775 -0.000620  0.0009    1.4784   
    14. B(C  12,O  11)                1.3641  0.005362 -0.0097    1.3544   
    15. B(O  13,C  12)                1.2050  0.008350 -0.0084    1.1966   
    16. B(H  14,C   3)                1.0816  0.000269 -0.0012    1.0804   
    17. B(H  15,C   5)                1.0786  0.000162 -0.0002    1.0784   
    18. B(H  16,C   6)                1.0823  0.001461 -0.0037    1.0786   
    19. B(H  17,C   9)                1.0815  0.001539 -0.0038    1.0777   
    20. B(O  18,H  15)                5.2985 -0.000067 -0.0111    5.2874   
    21. B(O  18,H  14)                5.0511  0.000338 -0.0107    5.0404   
    22. B(O  18,C   3)                5.4559  0.000222 -0.0130    5.4430   
    23. B(H  19,H  15)                4.8609  0.000755  0.0001    4.8610   
    24. B(H  19,H  14)                4.4314 -0.000618  0.0022    4.4336   
    25. B(H  19,C   5)                5.3561 -0.001177  0.0069    5.3630   
    26. B(H  19,C   4)                5.4552  0.001431 -0.0002    5.4551   
    27. B(H  19,C   3)                4.9867 -0.000620  0.0013    4.9880   
    28. B(H  19,O  18)                0.9618  0.001109 -0.0026    0.9592   
    29. B(H  20,O  18)                0.9618  0.001236 -0.0024    0.9593   
    30. L(N   0,C   1,C   2,C   3, 1) 177.00 -0.000845    0.15    177.16   
    31. L(N   0,C   1,C   2,C   3, 2) 179.99  0.000081   -0.02    179.98   
    32. A(C   3,C   2,C  12)          121.52  0.000672   -0.08    121.44   
    33. A(C   1,C   2,C   3)          120.63 -0.001673    0.33    120.96   
    34. A(C   1,C   2,C  12)          117.85  0.001001   -0.25    117.60   
    35. A(C   2,C   3,O  18)          111.09  0.000587   -0.26    110.83   
    36. A(C   2,C   3,C   4)          119.55  0.000489    0.02    119.57   
    37. A(C   2,C   3,H  14)          122.18  0.000855   -0.43    121.76   
    38. A(C   4,C   3,H  14)          118.27 -0.001344    0.41    118.68   
    39. A(C   4,C   3,O  18)           95.57 -0.001047    0.20     95.77   
    40. A(H  14,C   3,O  18)           62.65  0.000100    0.09     62.74   
    41. A(C   5,C   4,C  10)          119.07 -0.000632    0.09    119.16   
    42. A(C   3,C   4,C  10)          118.48  0.001641   -0.34    118.14   
    43. A(C   3,C   4,C   5)          122.45 -0.001009    0.25    122.70   
    44. A(C   4,C   5,C   6)          119.96 -0.002890    0.63    120.58   
    45. A(C   6,C   5,H  15)          118.87 -0.002102    0.64    119.51   
    46. A(C   4,C   5,H  15)          121.17  0.004992   -1.27    119.90   
    47. A(C   7,C   6,H  16)          118.30  0.001231   -0.30    118.00   
    48. A(C   5,C   6,H  16)          119.24 -0.003745    0.93    120.17   
    49. A(C   5,C   6,C   7)          122.46  0.002514   -0.63    121.82   
    50. A(O   8,C   7,C   9)          122.01  0.000830   -0.21    121.80   
    51. A(C   6,C   7,C   9)          116.11 -0.001619    0.41    116.52   
    52. A(C   6,C   7,O   8)          121.88  0.000789   -0.20    121.68   
    53. A(C  10,C   9,H  17)          119.66 -0.001350    0.29    119.95   
    54. A(C   7,C   9,H  17)          119.30 -0.000313    0.07    119.37   
    55. A(C   7,C   9,C  10)          121.04  0.001663   -0.36    120.68   
    56. A(C   4,C  10,O  11)          121.48  0.000050   -0.02    121.46   
    57. A(C   4,C  10,C   9)          121.37  0.000965   -0.15    121.23   
    58. A(C   9,C  10,O  11)          117.14 -0.001015    0.17    117.31   
    59. A(C  10,O  11,C  12)          121.79 -0.005313    1.00    122.79   
    60. A(O  11,C  12,O  13)          119.87  0.003410   -0.69    119.19   
    61. A(C   2,C  12,O  13)          122.95 -0.005870    1.27    124.21   
    62. A(C   2,C  12,O  11)          117.18  0.002461   -0.58    116.60   
    63. A(H  19,O  18,H  20)          105.01 -0.002118    1.26    106.27   
    64. A(C   3,O  18,H  20)          113.58 -0.002220    0.85    114.43   
    65. A(C   3,O  18,H  19)           56.29 -0.000229    0.85     57.14   
    66. D(C   4,C   3,C   2,C  12)     -0.06 -0.000114   -0.03     -0.09   
    67. D(H  14,C   3,C   2,C  12)   -180.00 -0.000072   -0.00   -180.00   
    68. D(C   4,C   3,C   2,C   1)    179.87 -0.000100   -0.12    179.75   
    69. D(O  18,C   3,C   2,C  12)   -109.83  0.000515   -0.11   -109.94   
    70. D(H  14,C   3,C   2,C   1)     -0.07 -0.000057   -0.09     -0.17   
    71. D(O  18,C   3,C   2,C   1)     70.10  0.000530   -0.20     69.90   
    72. D(C   5,C   4,C   3,C   2)   -179.92 -0.000049    0.07   -179.85   
    73. D(C  10,C   4,C   3,C   2)      0.08  0.000097    0.05      0.13   
    74. D(C  10,C   4,C   3,H  14)   -179.97  0.000057    0.03   -179.95   
    75. D(C   5,C   4,C   3,H  14)      0.03 -0.000089    0.05      0.07   
    76. D(C   5,C   4,C   3,O  18)    -61.83  0.000142   -0.10    -61.92   
    77. D(C  10,C   4,C   3,O  18)    118.17  0.000288   -0.12    118.06   
    78. D(H  15,C   5,C   4,C   3)      0.04  0.000320    0.01      0.04   
    79. D(C   6,C   5,C   4,C  10)      0.03 -0.000066    0.04      0.07   
    80. D(C   6,C   5,C   4,C   3)   -179.97  0.000081    0.02   -179.95   
    81. D(H  15,C   5,C   4,C  10)   -179.96  0.000173    0.03   -179.94   
    82. D(H  16,C   6,C   5,H  15)      0.01 -0.000170    0.04      0.05   
    83. D(H  16,C   6,C   5,C   4)   -179.98  0.000063    0.03   -179.95   
    84. D(C   7,C   6,C   5,H  15)   -180.00 -0.000198    0.04   -179.96   
    85. D(C   7,C   6,C   5,C   4)      0.00  0.000035    0.03      0.04   
    86. D(C   9,C   7,C   6,H  16)    179.96 -0.000021   -0.07    179.88   
    87. D(C   9,C   7,C   6,C   5)     -0.03  0.000007   -0.08     -0.11   
    88. D(O   8,C   7,C   6,H  16)     -0.09  0.000007   -0.10     -0.19   
    89. D(O   8,C   7,C   6,C   5)    179.92  0.000035   -0.11    179.81   
    90. D(H  17,C   9,C   7,O   8)      0.07 -0.000058    0.08      0.14   
    91. D(H  17,C   9,C   7,C   6)   -179.98 -0.000029    0.05   -179.93   
    92. D(C  10,C   9,C   7,O   8)   -179.93 -0.000045    0.08   -179.85   
    93. D(C  10,C   9,C   7,C   6)      0.02 -0.000016    0.05      0.07   
    94. D(O  11,C  10,C   4,C   3)     -0.03 -0.000041   -0.01     -0.04   
    95. D(C   9,C  10,C   4,C   5)     -0.05  0.000056   -0.06     -0.11   
    96. D(C   9,C  10,C   4,C   3)    179.96 -0.000085   -0.04    179.92   
    97. D(O  11,C  10,C   9,H  17)      0.01 -0.000043   -0.01     -0.00   
    98. D(O  11,C  10,C   9,C   7)   -179.99 -0.000056   -0.02   -180.01   
    99. D(C   4,C  10,C   9,H  17)   -179.98 -0.000001    0.02   -179.96   
   100. D(C   4,C  10,C   9,C   7)      0.02 -0.000014    0.01      0.03   
   101. D(O  11,C  10,C   4,C   5)    179.97  0.000100   -0.03    179.94   
   102. D(C  12,O  11,C  10,C   9)    179.96  0.000056   -0.02    179.94   
   103. D(C  12,O  11,C  10,C   4)     -0.05  0.000014   -0.05     -0.10   
   104. D(O  13,C  12,O  11,C  10)   -179.96  0.000028    0.05   -179.91   
   105. D(C   2,C  12,O  11,C  10)      0.07 -0.000028    0.07      0.14   
   106. D(O  13,C  12,C   2,C   3)   -179.99  0.000019   -0.01   -180.00   
   107. D(O  13,C  12,C   2,C   1)      0.08  0.000007    0.07      0.16   
   108. D(O  11,C  12,C   2,C   3)     -0.02  0.000080   -0.03     -0.05   
   109. D(O  11,C  12,C   2,C   1)   -179.95  0.000068    0.05   -179.89   
   110. D(H  20,O  18,C   3,H  14)    104.13 -0.000226    1.31    105.45   
   111. D(H  20,O  18,C   3,C   4)   -136.83 -0.001213    1.66   -135.18   
   112. D(H  20,O  18,C   3,C   2)    -12.18 -0.000991    1.69    -10.49   
   113. D(H  19,O  18,C   3,H  14)     11.36  0.001117   -0.07     11.29   
   114. D(H  19,O  18,C   3,C   4)    130.39  0.000130    0.27    130.66   
   115. D(H  19,O  18,C   3,C   2)   -104.95  0.000352    0.30   -104.65   
    ----------------------------------------------------------------------------

         *************************************************************
         *                GEOMETRY OPTIMIZATION CYCLE   3            *
         *************************************************************
---------------------------------
CARTESIAN COORDINATES (ANGSTROEM)
---------------------------------
  N    -0.942499   -4.647897   -0.260685
  C    -0.790134   -3.537847   -0.027112
  C    -0.573428   -2.162251    0.197458
  C     0.018912   -1.380113   -0.752440
  C     0.217027   -0.003617   -0.498289
  C     0.820878    0.868231   -1.436446
  C     0.990667    2.180881   -1.147605
  C     0.566671    2.747721    0.123548
  O     0.725208    3.939729    0.384518
  C    -0.049688    1.835299    1.065293
  C    -0.211663    0.515102    0.752764
  O    -0.797534   -0.279036    1.686324
  C    -1.013375   -1.602133    1.492981
  O    -1.536633   -2.240698    2.359187
  H     0.342442   -1.784090   -1.700832
  H     1.149766    0.487241   -2.390231
  H     1.450774    2.839300   -1.867398
  H    -0.382019    2.206799    2.020833
  O    -3.286765   -0.679150   -5.019477
  H    -2.529206   -1.267272   -5.039062
  H    -4.063662   -1.241938   -5.016266

----------------------------
CARTESIAN COORDINATES (A.U.)
----------------------------
  NO LB    ZA    FRAG    MASS        X           Y           Z
   0 N   7.0000    0    14.007   -1.781065   -8.783252   -0.492622
   1 C   6.0000    0    12.011   -1.493138   -6.685562   -0.051235
   2 C   6.0000    0    12.011   -1.083621   -4.086062    0.373141
   3 C   6.0000    0    12.011    0.035739   -2.608036   -1.421906
   4 C   6.0000    0    12.011    0.410121   -0.006835   -0.941629
   5 C   6.0000    0    12.011    1.551235    1.640719   -2.714490
   6 C   6.0000    0    12.011    1.872090    4.121268   -2.168660
   7 C   6.0000    0    12.011    1.070854    5.192441    0.233473
   8 O   8.0000    0    15.999    1.370444    7.445009    0.726634
   9 C   6.0000    0    12.011   -0.093896    3.468212    2.013112
  10 C   6.0000    0    12.011   -0.399986    0.973402    1.422519
  11 O   8.0000    0    15.999   -1.507121   -0.527302    3.186690
  12 C   6.0000    0    12.011   -1.915001   -3.027593    2.821325
  13 O   8.0000    0    15.999   -2.903815   -4.234305    4.458217
  14 H   1.0000    0     1.008    0.647121   -3.371441   -3.214107
  15 H   1.0000    0     1.008    2.172743    0.920753   -4.516882
  16 H   1.0000    0     1.008    2.741565    5.365499   -3.528871
  17 H   1.0000    0     1.008   -0.721912    4.170247    3.818821
  18 O   8.0000    0    15.999   -6.211085   -1.283408   -9.485437
  19 H   1.0000    0     1.008   -4.779506   -2.394798   -9.522448
  20 H   1.0000    0     1.008   -7.679209   -2.346923   -9.479368

      -----------------------------------------------------------      
     |                   =====================                   |     
     |                           x T B                           |     
     |                   =====================                   |     
     |                         S. Grimme                         |     
     |          Mulliken Center for Theoretical Chemistry        |     
     |                    University of Bonn                     |     
      -----------------------------------------------------------      

   * xtb version 6.6.1 (8d0f1dd) compiled by 'stahn@M-Bot' on 2023-08-01

   xtb is free software: you can redistribute it and/or modify it under
   the terms of the GNU Lesser General Public License as published by
   the Free Software Foundation, either version 3 of the License, or
   (at your option) any later version.
   
   xtb is distributed in the hope that it will be useful,
   but WITHOUT ANY WARRANTY; without even the implied warranty of
   MERCHANTABILITY or FITNESS FOR A PARTICULAR PURPOSE.  See the
   GNU Lesser General Public License for more details.
   
   Cite this work as:
   * C. Bannwarth, E. Caldeweyher, S. Ehlert, A. Hansen, P. Pracht,
     J. Seibert, S. Spicher, S. Grimme, WIREs Comput. Mol. Sci., 2020, 11,
     e01493. DOI: 10.1002/wcms.1493
   
   for GFN2-xTB:
   * C. Bannwarth, S. Ehlert and S. Grimme., J. Chem. Theory Comput., 2019,
     15, 1652-1671. DOI: 10.1021/acs.jctc.8b01176
   for GFN1-xTB:
   * S. Grimme, C. Bannwarth, P. Shushkov, J. Chem. Theory Comput., 2017,
     13, 1989-2009. DOI: 10.1021/acs.jctc.7b00118
   for GFN0-xTB:
   * P. Pracht, E. Caldeweyher, S. Ehlert, S. Grimme, ChemRxiv, 2019, preprint.
     DOI: 10.26434/chemrxiv.8326202.v1
   for GFN-FF:
   * S. Spicher and S. Grimme, Angew. Chem. Int. Ed., 2020, 59, 15665-15673.
     DOI: 10.1002/anie.202004239
   
   for ALPB and GBSA implicit solvation:
   * S. Ehlert, M. Stahn, S. Spicher, S. Grimme, J. Chem. Theory Comput.,
[...]
    54. A(C   7,C   9,H  17)          118.15 -0.000005    0.00    118.16   
    55. A(C   7,C   9,C  10)          121.42  0.000003   -0.00    121.42   
    56. A(C   4,C  10,O  11)          120.90 -0.000028    0.01    120.91   
    57. A(C   4,C  10,C   9)          120.97  0.000031   -0.01    120.96   
    58. A(C   9,C  10,O  11)          118.13 -0.000003    0.00    118.13   
    59. A(C  10,O  11,C  12)          123.38  0.000055   -0.02    123.36   
    60. A(O  11,C  12,O  13)          118.80  0.000023   -0.01    118.79   
    61. A(C   2,C  12,O  13)          124.98  0.000037   -0.01    124.97   
    62. A(C   2,C  12,O  11)          116.21 -0.000060    0.02    116.23   
    63. A(H  19,O  18,H  20)          106.37  0.000022   -0.01    106.35   
    64. A(C   3,O  18,H  20)          134.79  0.000007    0.01    134.80   
    65. A(C   3,O  18,H  19)          110.76 -0.000033    0.05    110.81   
    66. D(C   4,C   3,C   2,C  12)      0.08  0.000002   -0.01      0.07   
    67. D(H  14,C   3,C   2,C  12)   -179.09  0.000007   -0.02   -179.11   
    68. D(C   4,C   3,C   2,C   1)    178.22  0.000000   -0.01    178.20   
    69. D(O  18,C   3,C   2,C  12)    -66.14  0.000010   -0.01    -66.15   
    70. D(H  14,C   3,C   2,C   1)     -0.96  0.000005   -0.02     -0.98   
    71. D(O  18,C   3,C   2,C   1)    111.99  0.000008   -0.01    111.98   
    72. D(C   5,C   4,C   3,C   2)   -178.84  0.000009   -0.02   -178.86   
    73. D(C  10,C   4,C   3,C   2)      0.76  0.000007   -0.02      0.74   
    74. D(C  10,C   4,C   3,H  14)    179.94  0.000002   -0.02    179.92   
    75. D(C   5,C   4,C   3,H  14)      0.33  0.000003   -0.01      0.32   
    76. D(C   5,C   4,C   3,O  18)   -126.69  0.000006   -0.02   -126.71   
    77. D(C  10,C   4,C   3,O  18)     52.91  0.000005   -0.03     52.89   
    78. D(H  15,C   5,C   4,C   3)     -0.25  0.000010   -0.03     -0.28   
    79. D(C   6,C   5,C   4,C  10)      0.01  0.000007   -0.02     -0.02   
    80. D(C   6,C   5,C   4,C   3)    179.61  0.000006   -0.03    179.58   
    81. D(H  15,C   5,C   4,C  10)   -179.85  0.000011   -0.03   -179.88   
    82. D(H  16,C   6,C   5,H  15)     -0.03 -0.000007    0.00     -0.03   
    83. D(H  16,C   6,C   5,C   4)   -179.88 -0.000002    0.00   -179.88   
    84. D(C   7,C   6,C   5,H  15)    179.90 -0.000006   -0.00    179.89   
    85. D(C   7,C   6,C   5,C   4)      0.04 -0.000001   -0.00      0.04   
    86. D(C   9,C   7,C   6,H  16)    179.91 -0.000003    0.02    179.93   
    87. D(C   9,C   7,C   6,C   5)     -0.02 -0.000004    0.03      0.01   
    88. D(O   8,C   7,C   6,H  16)     -0.05 -0.000004    0.03     -0.02   
    89. D(O   8,C   7,C   6,C   5)   -179.98 -0.000005    0.04   -179.95   
    90. D(H  17,C   9,C   7,O   8)     -0.00  0.000006   -0.03     -0.03   
    91. D(H  17,C   9,C   7,C   6)   -179.96  0.000005   -0.02   -179.99   
    92. D(C  10,C   9,C   7,O   8)    179.91  0.000004   -0.03    179.88   
    93. D(C  10,C   9,C   7,C   6)     -0.06  0.000004   -0.02     -0.08   
    94. D(O  11,C  10,C   4,C   3)      0.51 -0.000015    0.05      0.56   
    95. D(C   9,C  10,C   4,C   5)     -0.09 -0.000008    0.03     -0.06   
    96. D(C   9,C  10,C   4,C   3)   -179.71 -0.000006    0.03   -179.67   
    97. D(O  11,C  10,C   9,H  17)     -0.20  0.000009   -0.02     -0.21   
    98. D(O  11,C  10,C   9,C   7)    179.90  0.000010   -0.02    179.88   
    99. D(C   4,C  10,C   9,H  17)   -179.98  0.000001   -0.01   -179.99   
   100. D(C   4,C  10,C   9,C   7)      0.11  0.000002   -0.00      0.11   
   101. D(O  11,C  10,C   4,C   5)   -179.87 -0.000016    0.04   -179.83   
   102. D(C  12,O  11,C  10,C   9)    177.38  0.000003   -0.02    177.36   
   103. D(C  12,O  11,C  10,C   4)     -2.83  0.000012   -0.03     -2.86   
   104. D(O  13,C  12,O  11,C  10)   -177.64 -0.000008    0.00   -177.64   
   105. D(C   2,C  12,O  11,C  10)      3.54 -0.000004   -0.00      3.54   
   106. D(O  13,C  12,C   2,C   3)    179.10  0.000002    0.02    179.12   
   107. D(O  13,C  12,C   2,C   1)      0.90  0.000003    0.02      0.92   
   108. D(O  11,C  12,C   2,C   3)     -2.16 -0.000002    0.02     -2.14   
   109. D(O  11,C  12,C   2,C   1)    179.64 -0.000001    0.03    179.66   
   110. D(H  20,O  18,C   3,H  14)   -169.55 -0.000007   -0.07   -169.61   
   111. D(H  20,O  18,C   3,C   4)    -45.36  0.000007   -0.08    -45.43   
   112. D(H  20,O  18,C   3,C   2)     82.14 -0.000004   -0.08     82.06   
   113. D(H  19,O  18,C   3,H  14)     47.22 -0.000002   -0.14     47.08   
   114. D(H  19,O  18,C   3,C   4)    171.41  0.000012   -0.15    171.26   
   115. D(H  19,O  18,C   3,C   2)    -61.10  0.000000   -0.15    -61.25   
    ----------------------------------------------------------------------------
                 *******************************************************
                 *** FINAL ENERGY EVALUATION AT THE STATIONARY POINT ***
                 ***               (AFTER   66 CYCLES)               ***
                 *******************************************************
---------------------------------
CARTESIAN COORDINATES (ANGSTROEM)
---------------------------------
  N    -0.722733   -4.625477   -1.420783
  C    -0.669563   -3.530635   -1.082720
  C    -0.587996   -2.180493   -0.696691
  C     0.387013   -1.355449   -1.191537
  C     0.419432   -0.001492   -0.815706
  C     1.386688    0.914444   -1.308363
  C     1.380012    2.212076   -0.929394
  C     0.381103    2.735706    0.003748
  O     0.370780    3.913472    0.349810
  C    -0.595352    1.776991    0.492539
  C    -0.570907    0.469565    0.094910
  O    -1.511515   -0.367492    0.593998
  C    -1.618115   -1.674983    0.231313
  O    -2.510113   -2.332287    0.693301
  H     1.126061   -1.738332   -1.882046
  H     2.128417    0.539921   -1.999376
  H     2.109763    2.915707   -1.299869
  H    -1.348671    2.124312    1.182240
  O    -2.782502   -0.888540   -2.014823
  H    -3.132392   -1.656305   -2.474438
  H    -3.533671   -0.456448   -1.599050

----------------------------
CARTESIAN COORDINATES (A.U.)
----------------------------
  NO LB    ZA    FRAG    MASS        X           Y           Z
   0 N   7.0000    0    14.007   -1.365767   -8.740884   -2.684891
   1 C   6.0000    0    12.011   -1.265291   -6.671933   -2.046045
   2 C   6.0000    0    12.011   -1.111151   -4.120534   -1.316555
   3 C   6.0000    0    12.011    0.731348   -2.561428   -2.251678
   4 C   6.0000    0    12.011    0.792611   -0.002820   -1.541461
   5 C   6.0000    0    12.011    2.620461    1.728050   -2.472448
   6 C   6.0000    0    12.011    2.607845    4.180218   -1.756300
   7 C   6.0000    0    12.011    0.720181    5.169735    0.007082
   8 O   8.0000    0    15.999    0.700673    7.395390    0.661045
   9 C   6.0000    0    12.011   -1.125053    3.358027    0.930763
  10 C   6.0000    0    12.011   -1.078857    0.887349    0.179354
  11 O   8.0000    0    15.999   -2.856349   -0.694459    1.122493
  12 C   6.0000    0    12.011   -3.057794   -3.165259    0.437118
  13 O   8.0000    0    15.999   -4.743426   -4.407384    1.310149
  14 H   1.0000    0     1.008    2.127947   -3.284972   -3.556552
  15 H   1.0000    0     1.008    4.022124    1.020302   -3.778273
  16 H   1.0000    0     1.008    3.986875    5.509888   -2.456396
  17 H   1.0000    0     1.008   -2.548619    4.014368    2.234109
  18 O   8.0000    0    15.999   -5.258167   -1.679097   -3.807463
  19 H   1.0000    0     1.008   -5.919363   -3.129963   -4.676009
  20 H   1.0000    0     1.008   -6.677671   -0.862562   -3.021766

      -----------------------------------------------------------      
     |                   =====================                   |     
     |                           x T B                           |     
     |                   =====================                   |     
     |                         S. Grimme                         |     
     |          Mulliken Center for Theoretical Chemistry        |     
     |                    University of Bonn                     |     
      -----------------------------------------------------------      

   * xtb version 6.6.1 (8d0f1dd) compiled by 'stahn@M-Bot' on 2023-08-01

   xtb is free software: you can redistribute it and/or modify it under
   the terms of the GNU Lesser General Public License as published by
   the Free Software Foundation, either version 3 of the License, or
   (at your option) any later version.
   
   xtb is distributed in the hope that it will be useful,
   but WITHOUT ANY WARRANTY; without even the implied warranty of
   MERCHANTABILITY or FITNESS FOR A PARTICULAR PURPOSE.  See the
   GNU Lesser General Public License for more details.
   
   Cite this work as:
   * C. Bannwarth, E. Caldeweyher, S. Ehlert, A. Hansen, P. Pracht,
     J. Seibert, S. Spicher, S. Grimme, WIREs Comput. Mol. Sci., 2020, 11,
     e01493. DOI: 10.1002/wcms.1493
   
   for GFN2-xTB:
   * C. Bannwarth, S. Ehlert and S. Grimme., J. Chem. Theory Comput., 2019,
     15, 1652-1671. DOI: 10.1021/acs.jctc.8b01176
   for GFN1-xTB:
   * S. Grimme, C. Bannwarth, P. Shushkov, J. Chem. Theory Comput., 2017,
     13, 1989-2009. DOI: 10.1021/acs.jctc.7b00118
   for GFN0-xTB:
   * P. Pracht, E. Caldeweyher, S. Ehlert, S. Grimme, ChemRxiv, 2019, preprint.
     DOI: 10.26434/chemrxiv.8326202.v1
   for GFN-FF:
   * S. Spicher and S. Grimme, Angew. Chem. Int. Ed., 2020, 59, 15665-15673.
     DOI: 10.1002/anie.202004239
   
   for ALPB and GBSA implicit solvation:
   * S. Ehlert, M. Stahn, S. Spicher, S. Grimme, J. Chem. Theory Comput.,
     2021, 17, 4250-4261. DOI: 10.1021/acs.jctc.1c00471
   
   for DFT-D4:
   * E. Caldeweyher, C. Bannwarth and S. Grimme, J. Chem. Phys., 2017,
     147, 034112. DOI: 10.1063/1.4993215
   * E. Caldeweyher, S. Ehlert, A. Hansen, H. Neugebauer, S. Spicher,
     C. Bannwarth and S. Grimme, J. Chem. Phys., 2019, 150, 154122.
     DOI: 10.1063/1.5090222
   * E. Caldeweyher, J.-M. Mewes, S. Ehlert and S. Grimme, Phys. Chem. Chem. Phys.
     2020, 22, 8499-8512. DOI: 10.1039/D0CP00502A
   
   for sTDA-xTB:
   * S. Grimme and C. Bannwarth, J. Chem. Phys., 2016, 145, 054103.
     DOI: 10.1063/1.4959605
   
   in the mass-spec context:
   * V. Asgeirsson, C. Bauer and S. Grimme, Chem. Sci., 2017, 8, 4879.
     DOI: 10.1039/c7sc00601b
   * J. Koopman and S. Grimme, ACS Omega 2019, 4, 12, 15120-15133.
     DOI: 10.1021/acsomega.9b02011
   
   for metadynamics refer to:
   * S. Grimme, J. Chem. Theory Comput., 2019, 155, 2847-2862
     DOI: 10.1021/acs.jctc.9b00143
   
   for SPH calculations refer to:
   * S. Spicher and S. Grimme, J. Chem. Theory Comput., 2021, 17, 1701-1714
     DOI: 10.1021/acs.jctc.0c01306
   
   with help from (in alphabetical order)
   P. Atkinson, C. Bannwarth, F. Bohle, G. Brandenburg, E. Caldeweyher
   M. Checinski, S. Dohm, S. Ehlert, S. Ehrlich, I. Gerasimov, C. Hölzer
   A. Katbashev, J. Koopman, C. Lavigne, S. Lehtola, F. März, M. Müller,
   F. Musil, H. Neugebauer, J. Pisarek, C. Plett, P. Pracht, F. Pultar,
   J. Seibert, P. Shushkov, S. Spicher, M. Stahn, M. Steiner, T. Strunk,
   J. Stückrath, T. Rose, and J. Unsleber
   
 * started run on 2025/01/14 at 21:17:09.421     

           -------------------------------------------------
          |                Calculation Setup                |
           -------------------------------------------------

          program call               : /home/jang/cal_tmp/10_orca/orca_5_0_4_linux_x86-64_shared_openmpi411/otool_xtb /home/jang/cal_tmp/10_orca/Gen_chromophore/Gen_molecular_pairs_cal/mol_2_7.xyz/input_XTB.xyz --grad -c 0 -u 0 -P 4 --namespace /home/jang/cal_tmp/10_orca/Gen_chromophore/Gen_molecular_pairs_cal/mol_2_7.xyz/input --input /home/jang/cal_tmp/10_orca/Gen_chromophore/Gen_molecular_pairs_cal/mol_2_7.xyz/input_XTB.input.tmp --acc 1.000000
          hostname                   : node02
          calculation namespace      : /home/jang/cal_tmp/10_orca/Gen_chromophore/Gen_molecular_pairs_cal/mol_2_7.xyz/input
          coordinate file            : /home/jang/cal_tmp/10_orca/Gen_chromophore/Gen_molecular_pairs_cal/mol_2_7.xyz/input_XTB.xyz
          omp threads                :                     4

   ID    Z sym.   atoms
    1    7 N      1
    2    6 C      2-8, 10, 11, 13
    3    8 O      9, 12, 14, 19
    4    1 H      15-18, 20, 21

molecular fragmentation (1/2 indicates fragments):
111111111111111111222
# atoms in fragment 1/2:    18     3
 fragment masses (1/2) :      186.14       18.02
CMA distance (Bohr)    :   5.822
constraining FC (au)   :  0.0500

           -------------------------------------------------
          |                 G F N 2 - x T B                 |
           -------------------------------------------------

        Reference                      10.1021/acs.jctc.8b01176
      * Hamiltonian:
        H0-scaling (s, p, d)           1.850000    2.230000    2.230000
        zeta-weighting                 0.500000
      * Dispersion:
        s8                             2.700000
        a1                             0.520000
        a2                             5.000000
        s9                             5.000000
      * Repulsion:
        kExp                           1.500000    1.000000
        rExp                           1.000000
      * Coulomb:
        alpha                          2.000000
        third order                    shell-resolved
        anisotropic                    true
        a3                             3.000000
        a5                             4.000000
        cn-shift                       1.200000
        cn-exp                         4.000000
        max-rad                        5.000000

q/qsh data taken from xtbrestart
CAMM data taken from xtbrestart

          ...................................................
          :                      SETUP                      :
          :.................................................:
          :  # basis functions                  66          :
          :  # atomic orbitals                  66          :
          :  # shells                           36          :
          :  # electrons                        75          :
          :  max. iterations                   250          :
          :  Hamiltonian                  GFN2-xTB          :
          :  restarted?                       true          :
          :  GBSA solvation                  false          :
          :  PC potential                    false          :
          :  electronic temp.          300.0000000     K    :
          :  accuracy                    1.0000000          :
          :  -> integral cutoff          0.2500000E+02      :
          :  -> integral neglect         0.1000000E-07      :
          :  -> SCF convergence          0.1000000E-05 Eh   :
          :  -> wf. convergence          0.1000000E-03 e    :
          :  Broyden damping             0.4000000          :
          ...................................................

 iter      E             dE          RMSdq      gap      omega  full diag
   1    -44.1514547 -0.441515E+02  0.548E-03    2.23       0.0  T
   2    -44.1514548 -0.149662E-07  0.318E-03    2.23       6.9  T
   3    -44.1514547  0.348779E-07  0.140E-03    2.23      15.6  T
   4    -44.1514548 -0.389848E-07  0.361E-04    2.23      60.4  T
   5    -44.1514548 -0.205700E-08  0.142E-04    2.23     153.7  T

   *** convergence criteria satisfied after 5 iterations ***

         #    Occupation            Energy/Eh            Energy/eV
      -------------------------------------------------------------
         1        2.0000           -0.7824971             -21.2928
       ...           ...                  ...                  ...
        32        2.0000           -0.4738832             -12.8950
        33        2.0000           -0.4661492             -12.6846
        34        2.0000           -0.4551604             -12.3855
        35        2.0000           -0.4471467             -12.1675
        36        2.0000           -0.4403237             -11.9818
        37        1.9991           -0.4201158             -11.4319
        38        1.0009           -0.4067806             -11.0691 (HOMO)
        39                         -0.3246812              -8.8350 (LUMO)
        40                         -0.2766774              -7.5288
        41                         -0.2509817              -6.8296
        42                         -0.2358586              -6.4180
        43                         -0.2313533              -6.2954
       ...                                ...                  ...
        66                          1.1458307              31.1796
      -------------------------------------------------------------
                  HL-Gap            0.0820994 Eh            2.2340 eV
             Fermi-level           -0.3895896 Eh          -10.6013 eV

 SCC (total)                   0 d,  0 h,  0 min,  0.034 sec
 SCC setup                      ...        0 min,  0.000 sec (  1.335%)
 Dispersion                     ...        0 min,  0.000 sec (  1.342%)
 classical contributions        ...        0 min,  0.000 sec (  0.378%)
 integral evaluation            ...        0 min,  0.003 sec (  7.652%)
 iterations                     ...        0 min,  0.024 sec ( 72.293%)
 molecular gradient             ...        0 min,  0.005 sec ( 14.983%)
 printout                       ...        0 min,  0.001 sec (  1.652%)

         :::::::::::::::::::::::::::::::::::::::::::::::::::::
         ::                     SUMMARY                     ::
         :::::::::::::::::::::::::::::::::::::::::::::::::::::
         :: total energy             -43.554004834631 Eh    ::
         :: gradient norm              0.000187538283 Eh/a0 ::
         :: HOMO-LUMO gap              2.234037574919 eV    ::
         ::.................................................::
         :: SCC energy               -44.151454758185 Eh    ::
         :: -> isotropic ES            0.102994025182 Eh    ::
         :: -> anisotropic ES         -0.000560220308 Eh    ::
         :: -> anisotropic XC          0.021249567111 Eh    ::
         :: -> dispersion             -0.021564045739 Eh    ::
         :: repulsion energy           0.597351688030 Eh    ::
         :: add. restraining           0.000000000000 Eh    ::
         :: total charge               0.000000000001 e     ::
         :::::::::::::::::::::::::::::::::::::::::::::::::::::


Property printout bound to 'properties.out'

           -------------------------------------------------
          | TOTAL ENERGY              -43.554004834631 Eh   |
          | GRADIENT NORM               0.000187538283 Eh/α |
          | HOMO-LUMO GAP               2.234037574919 eV   |
           -------------------------------------------------

------------------------------------------------------------------------
 * finished run on 2025/01/14 at 21:17:10.771     
------------------------------------------------------------------------
 total:
 * wall-time:     0 d,  0 h,  0 min,  1.348 sec
 *  cpu-time:     0 d,  0 h,  0 min,  1.781 sec
 * ratio c/w:     1.321 speedup
 SCF:
 * wall-time:     0 d,  0 h,  0 min,  0.034 sec
 *  cpu-time:     0 d,  0 h,  0 min,  0.134 sec
 * ratio c/w:     3.920 speedup


-------------------------   --------------------
FINAL SINGLE POINT ENERGY       -43.554004834630
-------------------------   --------------------

                                *** OPTIMIZATION RUN DONE ***

Timings for individual modules:

Sum of individual times         ...      159.499 sec (=   2.658 min)
Geometry relaxation             ...       47.433 sec (=   0.791 min)  29.7 %
XTB module                      ...      112.066 sec (=   1.868 min)  70.3 %
                             ****ORCA TERMINATED NORMALLY****
TOTAL RUN TIME: 0 days 0 hours 10 minutes 16 seconds 624 msec
