
                                 *****************
                                 * O   R   C   A *
                                 *****************

                                            #,                                       
                                            ###                                      
                                            ####                                     
                                            #####                                    
                                            ######                                   
                                           ########,                                 
                                     ,,################,,,,,                         
                               ,,#################################,,                 
                          ,,##########################################,,             
                       ,#########################################, ''#####,          
                    ,#############################################,,   '####,        
                  ,##################################################,,,,####,       
                ,###########''''           ''''###############################       
              ,#####''   ,,,,##########,,,,          '''####'''          '####       
            ,##' ,,,,###########################,,,                        '##       
           ' ,,###''''                  '''############,,,                           
         ,,##''                                '''############,,,,        ,,,,,,###''
      ,#''                                            '''#######################'''  
     '                                                          ''''####''''         
             ,#######,   #######,   ,#######,      ##                                
            ,#'     '#,  ##    ##  ,#'     '#,    #''#        ######   ,####,        
            ##       ##  ##   ,#'  ##            #'  '#       #        #'  '#        
            ##       ##  #######   ##           ,######,      #####,   #    #        
            '#,     ,#'  ##    ##  '#,     ,#' ,#      #,         ##   #,  ,#        
             '#######'   ##     ##  '#######'  #'      '#     #####' # '####'        



                  #######################################################
                  #                        -***-                        #
                  #          Department of theory and spectroscopy      #
                  #    Directorship and core code : Frank Neese         #
                  #        Max Planck Institute fuer Kohlenforschung    #
                  #                Kaiser Wilhelm Platz 1               #
                  #                 D-45470 Muelheim/Ruhr               #
                  #                      Germany                        #
                  #                                                     #
                  #                  All rights reserved                #
                  #                        -***-                        #
                  #######################################################


                         Program Version 5.0.4 -  RELEASE  -


 With contributions from (in alphabetic order):
   Daniel Aravena         : Magnetic Suceptibility
   Michael Atanasov       : Ab Initio Ligand Field Theory (pilot matlab implementation)
   Alexander A. Auer      : GIAO ZORA, VPT2 properties, NMR spectrum
   Ute Becker             : Parallelization
   Giovanni Bistoni       : ED, misc. LED, open-shell LED, HFLD
   Martin Brehm           : Molecular dynamics
   Dmytro Bykov           : SCF Hessian
   Vijay G. Chilkuri      : MRCI spin determinant printing, contributions to CSF-ICE
   Dipayan Datta          : RHF DLPNO-CCSD density
   Achintya Kumar Dutta   : EOM-CC, STEOM-CC
   Dmitry Ganyushin       : Spin-Orbit,Spin-Spin,Magnetic field MRCI
   Miquel Garcia          : C-PCM and meta-GGA Hessian, CC/C-PCM, Gaussian charge scheme
   Yang Guo               : DLPNO-NEVPT2, F12-NEVPT2, CIM, IAO-localization
   Andreas Hansen         : Spin unrestricted coupled pair/coupled cluster methods
   Benjamin Helmich-Paris : MC-RPA, TRAH-SCF, COSX integrals
   Lee Huntington         : MR-EOM, pCC
   Robert Izsak           : Overlap fitted RIJCOSX, COSX-SCS-MP3, EOM
   Marcus Kettner         : VPT2
   Christian Kollmar      : KDIIS, OOCD, Brueckner-CCSD(T), CCSD density, CASPT2, CASPT2-K
   Simone Kossmann        : Meta GGA functionals, TD-DFT gradient, OOMP2, MP2 Hessian
   Martin Krupicka        : Initial AUTO-CI
   Lucas Lang             : DCDCAS
   Marvin Lechner         : AUTO-CI (C++ implementation), FIC-MRCC
   Dagmar Lenk            : GEPOL surface, SMD
   Dimitrios Liakos       : Extrapolation schemes; Compound Job, initial MDCI parallelization
   Dimitrios Manganas     : Further ROCIS development; embedding schemes
   Dimitrios Pantazis     : SARC Basis sets
   Anastasios Papadopoulos: AUTO-CI, single reference methods and gradients
   Taras Petrenko         : DFT Hessian,TD-DFT gradient, ASA, ECA, R-Raman, ABS, FL, XAS/XES, NRVS
   Peter Pinski           : DLPNO-MP2, DLPNO-MP2 Gradient
   Christoph Reimann      : Effective Core Potentials
   Marius Retegan         : Local ZFS, SOC
   Christoph Riplinger    : Optimizer, TS searches, QM/MM, DLPNO-CCSD(T), (RO)-DLPNO pert. Triples
   Tobias Risthaus        : Range-separated hybrids, TD-DFT gradient, RPA, STAB
   Michael Roemelt        : Original ROCIS implementation
   Masaaki Saitow         : Open-shell DLPNO-CCSD energy and density
   Barbara Sandhoefer     : DKH picture change effects
   Avijit Sen             : IP-ROCIS
   Kantharuban Sivalingam : CASSCF convergence, NEVPT2, FIC-MRCI
   Bernardo de Souza      : ESD, SOC TD-DFT
   Georgi Stoychev        : AutoAux, RI-MP2 NMR, DLPNO-MP2 response
   Willem Van den Heuvel  : Paramagnetic NMR
   Boris Wezisla          : Elementary symmetry handling
   Frank Wennmohs         : Technical directorship


 We gratefully acknowledge several colleagues who have allowed us to
 interface, adapt or use parts of their codes:
   Stefan Grimme, W. Hujo, H. Kruse, P. Pracht,  : VdW corrections, initial TS optimization,
                  C. Bannwarth, S. Ehlert          DFT functionals, gCP, sTDA/sTD-DF
   Ed Valeev, F. Pavosevic, A. Kumar             : LibInt (2-el integral package), F12 methods
   Garnet Chan, S. Sharma, J. Yang, R. Olivares  : DMRG
   Ulf Ekstrom                                   : XCFun DFT Library
   Mihaly Kallay                                 : mrcc  (arbitrary order and MRCC methods)
   Jiri Pittner, Ondrej Demel                    : Mk-CCSD
   Frank Weinhold                                : gennbo (NPA and NBO analysis)
   Christopher J. Cramer and Donald G. Truhlar   : smd solvation model
   Lars Goerigk                                  : TD-DFT with DH, B97 family of functionals
   V. Asgeirsson, H. Jonsson                     : NEB implementation
   FAccTs GmbH                                   : IRC, NEB, NEB-TS, DLPNO-Multilevel, CI-OPT
                                                   MM, QMMM, 2- and 3-layer-ONIOM, Crystal-QMMM,
                                                   LR-CPCM, SF, NACMEs, symmetry and pop. for TD-DFT,
                                                   nearIR, NL-DFT gradient (VV10), updates on ESD,
                                                   ML-optimized integration grids
   S Lehtola, MJT Oliveira, MAL Marques          : LibXC Library
   Liviu Ungur et al                             : ANISO software


 Your calculation uses the libint2 library for the computation of 2-el integrals
 For citations please refer to: http://libint.valeyev.net

 Your ORCA version has been built with support for libXC version: 5.1.0
 For citations please refer to: https://tddft.org/programs/libxc/

 This ORCA versions uses:
   CBLAS   interface :  Fast vector & matrix operations
   LAPACKE interface :  Fast linear algebra routines
   SCALAPACK package :  Parallel linear algebra routines
   Shared memory     :  Shared parallel matrices
   BLAS/LAPACK       :  OpenBLAS 0.3.15  USE64BITINT DYNAMIC_ARCH NO_AFFINITY SkylakeX SINGLE_THREADED
        Core in use  :  SkylakeX
   Copyright (c) 2011-2014, The OpenBLAS Project




***************************************
The coordinates will be read from file: mol.xyz
***************************************


Your calculation utilizes the atom-pairwise dispersion correction
with the Becke-Johnson damping scheme (D3BJ)
Cite in your paper:
S.Grimme, S.Ehrlich, L.Goerigk, J Comput Chem, (2011), 32, 1456–1465 
S.Grimme, J.Antony, S.Ehrlich and H.Krieg, J.Chem.Phys., 132, (2010), 154104 
   

Your calculation utilizes the semiempirical GFN2-xTB method
Please cite in your paper:
C. Bannwarth, Ehlert S., S. Grimme,  J. Chem. Theory Comput., 15, (2019), 1652.
   

================================================================================

----- Orbital basis set information -----
Your calculation utilizes the basis: def2-SVP
   F. Weigend and R. Ahlrichs, Phys. Chem. Chem. Phys. 7, 3297 (2005).

----- AuxJ basis set information -----
Your calculation utilizes the auxiliary basis: def2/J
   F. Weigend, Phys. Chem. Chem. Phys. 8, 1057 (2006).

================================================================================
                                        WARNINGS
                       Please study these warnings very carefully!
================================================================================


WARNING: Geometry Optimization
  ===> : Switching off AutoStart
         For restart on a previous wavefunction, please use MOREAD

WARNING: Found dipole moment calculation with XTB calculation
  ===> : Switching off dipole moment calculation


WARNING: TRAH-SCF for XTB is not implemented!
  ===> : Turning TRAH off!

================================================================================
                                       INPUT FILE
================================================================================
NAME = /home/jang/cal_tmp/10_orca/Gen_chromophore/Gen_molecular_pairs_cal/mol_1_2.xyz/input.inp
|  1> ! B3LYP D3BJ def2-SVP TightSCF XTB Opt PAL8
|  2> 
|  3> %geom
|  4>   MaxIter 3000
|  5> end
|  6> 
|  7> * xyzfile 0 1 mol.xyz
|  8> 
|  9> %pal nprocs 4 # any number (positive integer)
| 10> end
| 11> 
| 12>                          ****END OF INPUT****
================================================================================

                       *****************************
                       * Geometry Optimization Run *
                       *****************************

Geometry optimization settings:
Update method            Update   .... BFGS
Choice of coordinates    CoordSys .... Z-matrix Internals
Initial Hessian          InHess   .... Almoef's Model

Convergence Tolerances:
Energy Change            TolE     ....  5.0000e-06 Eh
Max. Gradient            TolMAXG  ....  3.0000e-04 Eh/bohr
RMS Gradient             TolRMSG  ....  1.0000e-04 Eh/bohr
Max. Displacement        TolMAXD  ....  4.0000e-03 bohr
RMS Displacement         TolRMSD  ....  2.0000e-03 bohr
Strict Convergence                ....  False
------------------------------------------------------------------------------
                        ORCA OPTIMIZATION COORDINATE SETUP
------------------------------------------------------------------------------

The optimization will be done in new redundant internal coordinates
Making redundant internal coordinates   ...  (new redundants) done
Evaluating the initial hessian          ...  (Almloef) done
Evaluating the coordinates              ...  done
Calculating the B-matrix                .... done
Calculating the G-matrix                .... done
Diagonalizing the G-matrix              .... done
Small eigenvalue found = 2.249e-02
The first mode is                       ....   78
The number of degrees of freedom        ....   60

    -----------------------------------------------------------------
                    Redundant Internal Coordinates


    -----------------------------------------------------------------
         Definition                    Initial Value    Approx d2E/dq
    -----------------------------------------------------------------
      1. B(C   1,N   0)                  1.1607         1.299475   
      2. B(C   2,C   1)                  1.4207         0.558181   
      3. B(C   3,C   2)                  1.3420         0.745267   
      4. B(C   4,C   3)                  1.4533         0.495072   
      5. B(C   5,C   4)                  1.3961         0.610997   
      6. B(C   6,C   5)                  1.3983         0.606071   
      7. B(C   7,C   6)                  1.3931         0.617709   
      8. B(O   8,C   7)                  1.3628         0.618409   
      9. B(C   9,C   7)                  1.3892         0.626601   
     10. B(C  10,C   9)                  1.3932         0.617585   
     11. B(C  10,C   4)                  1.3926         0.618825   
     12. B(O  11,C  10)                  1.4074         0.524880   
     13. B(C  12,C   2)                  1.4791         0.450410   
     14. B(C  12,O  11)                  1.3929         0.553617   
     15. B(O  13,C  12)                  1.2257         1.023144   
     16. B(H  14,C   3)                  1.0869         0.364272   
     17. B(H  15,C   5)                  1.0874         0.363554   
     18. B(H  16,C   6)                  1.0873         0.363630   
     19. B(H  17,O   8)                  0.9719         0.497702   
     20. B(H  18,C   9)                  1.0845         0.367436   
     21. B(O  19,H  16)                  4.7037         0.000001   
     22. B(O  19,H  15)                  4.3413         0.000002   
     23. B(O  19,C   6)                  5.3151         0.000000   
     24. B(O  19,C   5)                  5.1446         0.000001   
     25. B(H  20,H  16)                  5.1623         0.000000   
     26. B(H  20,H  15)                  5.1424         0.000000   
     27. B(H  20,O  19)                  0.9690         0.503046   
     28. B(H  21,H  15)                  4.8031         0.000000   
     29. B(H  21,O  19)                  0.9690         0.503046   
     30. L(N   0,C   1,C   2,C   3, 1) 176.7279         0.484120   
     31. L(N   0,C   1,C   2,C   3, 2) 179.9999         0.484120   
     32. A(C   1,C   2,C  12)          118.1718         0.402448   
     33. A(C   3,C   2,C  12)          121.5110         0.423641   
     34. A(C   1,C   2,C   3)          120.3172         0.440291   
     35. A(C   2,C   3,C   4)          120.3883         0.430879   
     36. A(C   4,C   3,H  14)          118.0943         0.340459   
     37. A(C   2,C   3,H  14)          121.5174         0.364851   
     38. A(C   5,C   4,C  10)          118.9195         0.432778   
     39. A(C   3,C   4,C  10)          118.8668         0.416791   
     40. A(C   3,C   4,C   5)          122.2137         0.415848   
     41. A(C   6,C   5,H  15)          119.0386         0.352123   
     42. A(C   4,C   5,H  15)          121.1324         0.352606   
     43. A(C   4,C   5,C   6)          119.8289         0.431161   
     44. A(C   6,C   5,O  19)           89.3159         0.103662   
     45. A(C   4,C   5,O  19)          142.4019         0.103689   
     46. A(H  15,C   5,O  19)           38.1199         0.100296   
     47. A(C   7,C   6,H  16)          119.7862         0.353271   
     48. A(C   5,C   6,C   7)          120.0492         0.432008   
     49. A(C   5,C   6,H  16)          120.1646         0.352136   
     50. A(H  16,C   6,O  19)           50.7880         0.098803   
     51. A(C   7,C   6,O  19)          152.3019         0.101779   
     52. A(C   5,C   6,O  19)           75.4324         0.101724   
     53. A(O   8,C   7,C   9)          121.5052         0.431848   
     54. A(C   6,C   7,C   9)          120.8908         0.434604   
     55. A(C   6,C   7,O   8)          117.6041         0.430741   
     56. A(C   7,O   8,H  17)          109.0873         0.367185   
     57. A(C  10,C   9,H  18)          119.9490         0.353882   
     58. A(C   7,C   9,H  18)          121.7532         0.354753   
     59. A(C   7,C   9,C  10)          118.2978         0.434589   
     60. A(C   4,C  10,O  11)          120.5891         0.418424   
     61. A(C   4,C  10,C   9)          122.0138         0.433613   
     62. A(C   9,C  10,O  11)          117.3971         0.418275   
     63. A(C  10,O  11,C  12)          121.8053         0.407583   
     64. A(O  11,C  12,O  13)          120.8529         0.459537   
     65. A(C   2,C  12,O  13)          122.3075         0.445566   
     66. A(C   2,C  12,O  11)          116.8396         0.399292   
     67. A(C   5,O  19,C   6)           15.2517         0.089546   
     68. A(C   6,O  19,H  21)          135.9414         0.099428   
     69. A(C   6,O  19,H  20)          119.8202         0.099428   
     70. A(C   5,O  19,H  21)          121.2123         0.101016   
     71. A(C   5,O  19,H  20)          133.5249         0.101016   
     72. A(H  20,O  19,H  21)          103.9780         0.318375   
     73. D(C   4,C   3,C   2,C   1)    179.9995         0.039562   
     74. D(H  14,C   3,C   2,C  12)   -179.9999         0.039562   
     75. D(C   4,C   3,C   2,C  12)     -0.0005         0.039562   
     76. D(H  14,C   3,C   2,C   1)      0.0000         0.039562   
     77. D(C   5,C   4,C   3,C   2)   -179.9995         0.016691   
     78. D(C  10,C   4,C   3,H  14)    179.9997         0.016691   
     79. D(C  10,C   4,C   3,C   2)      0.0002         0.016691   
     80. D(C   5,C   4,C   3,H  14)     -0.0000         0.016691   
     81. D(O  19,C   5,C   4,C   3)     43.7766         0.028018   
     82. D(C   6,C   5,C   4,C  10)     -0.0002         0.028018   
     83. D(H  15,C   5,C   4,C  10)    179.9999         0.028018   
     84. D(C   6,C   5,C   4,C   3)    179.9995         0.028018   
     85. D(H  15,C   5,C   4,C   3)     -0.0004         0.028018   
     86. D(O  19,C   5,C   4,C  10)   -136.2231         0.028018   
     87. D(C   7,C   6,C   5,C   4)      0.0001         0.029600   
     88. D(O  19,C   6,C   5,H  15)     24.9699         0.029600   
     89. D(O  19,C   6,C   5,C   4)   -155.0300         0.029600   
     90. D(H  16,C   6,C   5,O  19)    -24.9697         0.029600   
     91. D(H  16,C   6,C   5,H  15)      0.0002         0.029600   
     92. D(H  16,C   6,C   5,C   4)   -179.9997         0.029600   
     93. D(C   7,C   6,C   5,O  19)    155.0301         0.029600   
     94. D(C   7,C   6,C   5,H  15)    180.0000         0.029600   
     95. D(C   9,C   7,C   6,O  19)    118.4777         0.028677   
     96. D(C   9,C   7,C   6,H  16)    179.9999         0.028677   
     97. D(C   9,C   7,C   6,C   5)      0.0001         0.028677   
     98. D(O   8,C   7,C   6,O  19)    -61.5222         0.028677   
     99. D(O   8,C   7,C   6,H  16)      0.0000         0.028677   
    100. D(O   8,C   7,C   6,C   5)   -179.9998         0.028677   
    101. D(H  17,O   8,C   7,C   6)   -179.9997         0.028047   
    102. D(H  17,O   8,C   7,C   9)      0.0004         0.028047   
    103. D(C  10,C   9,C   7,C   6)     -0.0001         0.027204   
    104. D(H  18,C   9,C   7,O   8)     -0.0001         0.027204   
    105. D(H  18,C   9,C   7,C   6)   -180.0000         0.027204   
    106. D(C  10,C   9,C   7,O   8)    179.9997         0.027204   
    107. D(O  11,C  10,C   9,H  18)     -0.0001         0.026380   
    108. D(O  11,C  10,C   9,C   7)   -180.0000         0.026380   
    109. D(C   4,C  10,C   9,H  18)    179.9999         0.026380   
    110. D(C   4,C  10,C   9,C   7)      0.0000         0.026380   
    111. D(O  11,C  10,C   4,C   5)   -179.9999         0.026493   
    112. D(O  11,C  10,C   4,C   3)      0.0004         0.026493   
    113. D(C   9,C  10,C   4,C   5)      0.0001         0.026493   
    114. D(C   9,C  10,C   4,C   3)   -179.9995         0.026493   
    115. D(C  12,O  11,C  10,C   9)    179.9992         0.019850   
    116. D(C  12,O  11,C  10,C   4)     -0.0008         0.019850   
    117. D(O  13,C  12,O  11,C  10)   -179.9994         0.022181   
    118. D(C   2,C  12,O  11,C  10)      0.0005         0.022181   
    119. D(O  13,C  12,C   2,C   3)   -179.9999         0.013828   
    120. D(O  13,C  12,C   2,C   1)      0.0001         0.013828   
    121. D(O  11,C  12,C   2,C   3)      0.0001         0.013828   
    122. D(O  11,C  12,C   2,C   1)   -179.9998         0.013828   
    123. D(H  21,O  19,C   6,C   5)    -16.8161         0.001500   
    124. D(H  20,O  19,C   6,H  16)    -51.8491         0.001500   
    125. D(H  20,O  19,C   6,C   7)     28.0791         0.001500   
    126. D(C   6,O  19,C   5,H  15)   -143.2820         0.001500   
    127. D(C   6,O  19,C   5,C   4)    143.1131         0.001500   
    128. D(H  21,O  19,C   5,H  15)     23.1131         0.001500   
    129. D(H  21,O  19,C   5,C   6)    166.3950         0.001500   
    130. D(H  20,O  19,C   6,C   5)    156.2534         0.001500   
    131. D(H  21,O  19,C   5,C   4)    -50.4918         0.001500   
    132. D(H  20,O  19,C   5,H  15)   -172.0878         0.001500   
    133. D(H  20,O  19,C   5,C   6)    -28.8058         0.001500   
    134. D(H  21,O  19,C   6,C   7)   -144.9904         0.001500   
    135. D(H  20,O  19,C   5,C   4)    114.3073         0.001500   
    136. D(C   5,O  19,C   6,H  16)    151.8975         0.001500   
    137. D(C   5,O  19,C   6,C   7)   -128.1743         0.001500   
    138. D(H  21,O  19,C   6,H  16)    135.0814         0.001500   
    -----------------------------------------------------------------

Number of atoms                         .... 22
Number of degrees of freedom            .... 138

         *************************************************************
         *                GEOMETRY OPTIMIZATION CYCLE   1            *
         *************************************************************
---------------------------------
CARTESIAN COORDINATES (ANGSTROEM)
---------------------------------
  N     4.575418   -0.183461    2.047817
  C     3.496207    0.022814    1.673797
  C     2.179739    0.206996    1.172450
  C     1.647286   -0.685273    0.323141
  C     0.300700   -0.498387   -0.190671
  C    -0.290350   -1.402176   -1.075467
  C    -1.589649   -1.173299   -1.538751
  C    -2.291839   -0.046071   -1.118004
  O    -3.554411    0.127949   -1.600546
  C    -1.719190    0.863633   -0.237986
  C    -0.423937    0.620044    0.213542
  O     0.137700    1.553757    1.104394
  C     1.425429    1.400623    1.612867
  O     1.897368    2.224699    2.387862
  H     2.201475   -1.562411   -0.000554
  H     0.242670   -2.287259   -1.414526
  H    -2.055261   -1.873645   -2.227982
  H    -3.926347    0.945853   -1.230006
  H    -2.253009    1.745616    0.098623
  O    -0.935263   -6.432854   -1.937491
  H    -1.709087   -7.016084   -1.937491
  H    -0.182387   -7.042886   -1.937491

----------------------------
CARTESIAN COORDINATES (A.U.)
----------------------------
  NO LB    ZA    FRAG    MASS        X           Y           Z
   0 N   7.0000    0    14.007    8.646288   -0.346692    3.869813
   1 C   6.0000    0    12.011    6.606873    0.043112    3.163017
   2 C   6.0000    0    12.011    4.119110    0.391167    2.215609
   3 C   6.0000    0    12.011    3.112920   -1.294979    0.610648
   4 C   6.0000    0    12.011    0.568240   -0.941816   -0.360316
   5 C   6.0000    0    12.011   -0.548682   -2.649729   -2.032338
   6 C   6.0000    0    12.011   -3.004001   -2.217214   -2.907818
   7 C   6.0000    0    12.011   -4.330948   -0.087061   -2.112721
   8 O   8.0000    0    15.999   -6.716862    0.241788   -3.024593
   9 C   6.0000    0    12.011   -3.248799    1.632029   -0.449728
  10 C   6.0000    0    12.011   -0.801124    1.171713    0.403536
  11 O   8.0000    0    15.999    0.260215    2.936175    2.087002
  12 C   6.0000    0    12.011    2.693670    2.646793    3.047876
  13 O   8.0000    0    15.999    3.585507    4.204072    4.512405
  14 H   1.0000    0     1.008    4.160185   -2.952530   -0.001047
  15 H   1.0000    0     1.008    0.458580   -4.322292   -2.673066
  16 H   1.0000    0     1.008   -3.883881   -3.540675   -4.210276
  17 H   1.0000    0     1.008   -7.419721    1.787403   -2.324374
  18 H   1.0000    0     1.008   -4.257570    3.298736    0.186370
  19 O   8.0000    0    15.999   -1.767390  -12.156333   -3.661327
  20 H   1.0000    0     1.008   -3.229707  -13.258477   -3.661327
  21 H   1.0000    0     1.008   -0.344661  -13.309126   -3.661327

      -----------------------------------------------------------      
     |                   =====================                   |     
     |                           x T B                           |     
     |                   =====================                   |     
     |                         S. Grimme                         |     
     |          Mulliken Center for Theoretical Chemistry        |     
     |                    University of Bonn                     |     
      -----------------------------------------------------------      

   * xtb version 6.6.1 (8d0f1dd) compiled by 'stahn@M-Bot' on 2023-08-01

   xtb is free software: you can redistribute it and/or modify it under
   the terms of the GNU Lesser General Public License as published by
   the Free Software Foundation, either version 3 of the License, or
   (at your option) any later version.
   
   xtb is distributed in the hope that it will be useful,
   but WITHOUT ANY WARRANTY; without even the implied warranty of
   MERCHANTABILITY or FITNESS FOR A PARTICULAR PURPOSE.  See the
   GNU Lesser General Public License for more details.
   
   Cite this work as:
   * C. Bannwarth, E. Caldeweyher, S. Ehlert, A. Hansen, P. Pracht,
     J. Seibert, S. Spicher, S. Grimme, WIREs Comput. Mol. Sci., 2020, 11,
     e01493. DOI: 10.1002/wcms.1493
   
   for GFN2-xTB:
   * C. Bannwarth, S. Ehlert and S. Grimme., J. Chem. Theory Comput., 2019,
     15, 1652-1671. DOI: 10.1021/acs.jctc.8b01176
   for GFN1-xTB:
   * S. Grimme, C. Bannwarth, P. Shushkov, J. Chem. Theory Comput., 2017,
     13, 1989-2009. DOI: 10.1021/acs.jctc.7b00118
   for GFN0-xTB:
   * P. Pracht, E. Caldeweyher, S. Ehlert, S. Grimme, ChemRxiv, 2019, preprint.
     DOI: 10.26434/chemrxiv.8326202.v1
   for GFN-FF:
   * S. Spicher and S. Grimme, Angew. Chem. Int. Ed., 2020, 59, 15665-15673.
     DOI: 10.1002/anie.202004239
   
   for ALPB and GBSA implicit solvation:
   * S. Ehlert, M. Stahn, S. Spicher, S. Grimme, J. Chem. Theory Comput.,
     2021, 17, 4250-4261. DOI: 10.1021/acs.jctc.1c00471
   
   for DFT-D4:
   * E. Caldeweyher, C. Bannwarth and S. Grimme, J. Chem. Phys., 2017,
     147, 034112. DOI: 10.1063/1.4993215
   * E. Caldeweyher, S. Ehlert, A. Hansen, H. Neugebauer, S. Spicher,
     C. Bannwarth and S. Grimme, J. Chem. Phys., 2019, 150, 154122.
     DOI: 10.1063/1.5090222
   * E. Caldeweyher, J.-M. Mewes, S. Ehlert and S. Grimme, Phys. Chem. Chem. Phys.
     2020, 22, 8499-8512. DOI: 10.1039/D0CP00502A
   
   for sTDA-xTB:
   * S. Grimme and C. Bannwarth, J. Chem. Phys., 2016, 145, 054103.
     DOI: 10.1063/1.4959605
   
   in the mass-spec context:
   * V. Asgeirsson, C. Bauer and S. Grimme, Chem. Sci., 2017, 8, 4879.
     DOI: 10.1039/c7sc00601b
   * J. Koopman and S. Grimme, ACS Omega 2019, 4, 12, 15120-15133.
     DOI: 10.1021/acsomega.9b02011
   
   for metadynamics refer to:
   * S. Grimme, J. Chem. Theory Comput., 2019, 155, 2847-2862
     DOI: 10.1021/acs.jctc.9b00143
   
   for SPH calculations refer to:
   * S. Spicher and S. Grimme, J. Chem. Theory Comput., 2021, 17, 1701-1714
     DOI: 10.1021/acs.jctc.0c01306
   
   with help from (in alphabetical order)
   P. Atkinson, C. Bannwarth, F. Bohle, G. Brandenburg, E. Caldeweyher
   M. Checinski, S. Dohm, S. Ehlert, S. Ehrlich, I. Gerasimov, C. Hölzer
   A. Katbashev, J. Koopman, C. Lavigne, S. Lehtola, F. März, M. Müller,
   F. Musil, H. Neugebauer, J. Pisarek, C. Plett, P. Pracht, F. Pultar,
   J. Seibert, P. Shushkov, S. Spicher, M. Stahn, M. Steiner, T. Strunk,
   J. Stückrath, T. Rose, and J. Unsleber
   
 * started run on 2025/01/14 at 20:45:15.379     

           -------------------------------------------------
          |                Calculation Setup                |
           -------------------------------------------------

          program call               : /home/jang/cal_tmp/10_orca/orca_5_0_4_linux_x86-64_shared_openmpi411/otool_xtb /home/jang/cal_tmp/10_orca/Gen_chromophore/Gen_molecular_pairs_cal/mol_1_2.xyz/input_XTB.xyz --grad -c 0 -u 0 -P 4 --namespace /home/jang/cal_tmp/10_orca/Gen_chromophore/Gen_molecular_pairs_cal/mol_1_2.xyz/input --input /home/jang/cal_tmp/10_orca/Gen_chromophore/Gen_molecular_pairs_cal/mol_1_2.xyz/input_XTB.input.tmp --acc 1.000000
          hostname                   : node02
          calculation namespace      : /home/jang/cal_tmp/10_orca/Gen_chromophore/Gen_molecular_pairs_cal/mol_1_2.xyz/input
          coordinate file            : /home/jang/cal_tmp/10_orca/Gen_chromophore/Gen_molecular_pairs_cal/mol_1_2.xyz/input_XTB.xyz
          omp threads                :                     4

   ID    Z sym.   atoms
    1    7 N      1
    2    6 C      2-8, 10, 11, 13
    3    8 O      9, 12, 14, 20
    4    1 H      15-19, 21, 22

molecular fragmentation (1/2 indicates fragments):
1111111111111111111222
# atoms in fragment 1/2:    19     3
 fragment masses (1/2) :      187.15       18.02
CMA distance (Bohr)    :  13.700
constraining FC (au)   :  0.0500

           -------------------------------------------------
          |                 G F N 2 - x T B                 |
           -------------------------------------------------

        Reference                      10.1021/acs.jctc.8b01176
      * Hamiltonian:
        H0-scaling (s, p, d)           1.850000    2.230000    2.230000
        zeta-weighting                 0.500000
      * Dispersion:
        s8                             2.700000
        a1                             0.520000
        a2                             5.000000
        s9                             5.000000
      * Repulsion:
        kExp                           1.500000    1.000000
        rExp                           1.000000
      * Coulomb:
        alpha                          2.000000
        third order                    shell-resolved
        anisotropic                    true
        a3                             3.000000
        a5                             4.000000
        cn-shift                       1.200000
        cn-exp                         4.000000
        max-rad                        5.000000


          ...................................................
          :                      SETUP                      :
          :.................................................:
          :  # basis functions                  67          :
          :  # atomic orbitals                  67          :
          :  # shells                           37          :
          :  # electrons                        76          :
          :  max. iterations                   250          :
          :  Hamiltonian                  GFN2-xTB          :
          :  restarted?                      false          :
          :  GBSA solvation                  false          :
          :  PC potential                    false          :
          :  electronic temp.          300.0000000     K    :
          :  accuracy                    1.0000000          :
          :  -> integral cutoff          0.2500000E+02      :
          :  -> integral neglect         0.1000000E-07      :
          :  -> SCF convergence          0.1000000E-05 Eh   :
          :  -> wf. convergence          0.1000000E-03 e    :
          :  Broyden damping             0.4000000          :
          ...................................................

 iter      E             dE          RMSdq      gap      omega  full diag
   1    -44.6088484 -0.446088E+02  0.557E+00    2.84       0.0  T
   2    -44.6441174 -0.352690E-01  0.347E+00    2.73       1.0  T
   3    -44.6264343  0.176830E-01  0.230E+00    2.72       1.0  T
   4    -44.6824271 -0.559928E-01  0.698E-01    2.72       1.0  T
   5    -44.6899008 -0.747367E-02  0.177E-01    2.69       1.0  T
   6    -44.6900596 -0.158859E-03  0.755E-02    2.71       1.0  T
   7    -44.6901088 -0.491190E-04  0.342E-02    2.70       1.0  T
   8    -44.6901169 -0.819407E-05  0.154E-02    2.71       1.4  T
   9    -44.6901195 -0.253598E-05  0.558E-03    2.70       3.8  T
  10    -44.6901198 -0.274035E-06  0.236E-03    2.71       9.0  T
  11    -44.6901198 -0.944368E-08  0.111E-03    2.71      19.1  T
  12    -44.6901198 -0.139482E-07  0.471E-04    2.71      45.3  T
  13    -44.6901198 -0.926526E-09  0.167E-04    2.71     127.4  T

   *** convergence criteria satisfied after 13 iterations ***

         #    Occupation            Energy/Eh            Energy/eV
      -------------------------------------------------------------
         1        2.0000           -0.7587671             -20.6471
       ...           ...                  ...                  ...
        32        2.0000           -0.4672932             -12.7157
        33        2.0000           -0.4581063             -12.4657
        34        2.0000           -0.4565186             -12.4225
        35        2.0000           -0.4374152             -11.9027
        36        2.0000           -0.4350802             -11.8391
        37        2.0000           -0.4240055             -11.5378
        38        2.0000           -0.4165110             -11.3338 (HOMO)
        39                         -0.3171023              -8.6288 (LUMO)
        40                         -0.2707653              -7.3679
        41                         -0.2490360              -6.7766
        42                         -0.2268182              -6.1720
        43                         -0.2233947              -6.0789
       ...                                ...                  ...
        67                          1.0856945              29.5433
      -------------------------------------------------------------
                  HL-Gap            0.0994087 Eh            2.7050 eV
             Fermi-level           -0.3668067 Eh           -9.9813 eV

 SCC (total)                   0 d,  0 h,  0 min,  0.052 sec
 SCC setup                      ...        0 min,  0.000 sec (  0.838%)
 Dispersion                     ...        0 min,  0.001 sec (  2.028%)
 classical contributions        ...        0 min,  0.000 sec (  0.225%)
 integral evaluation            ...        0 min,  0.003 sec (  5.243%)
 iterations                     ...        0 min,  0.041 sec ( 80.337%)
 molecular gradient             ...        0 min,  0.005 sec ( 10.560%)
 printout                       ...        0 min,  0.000 sec (  0.598%)

         :::::::::::::::::::::::::::::::::::::::::::::::::::::
         ::                     SUMMARY                     ::
         :::::::::::::::::::::::::::::::::::::::::::::::::::::
         :: total energy             -44.113599177224 Eh    ::
         :: gradient norm              0.098836244248 Eh/a0 ::
         :: HOMO-LUMO gap              2.705048315454 eV    ::
         ::.................................................::
         :: SCC energy               -44.690119782936 Eh    ::
         :: -> isotropic ES            0.101177246027 Eh    ::
         :: -> anisotropic ES          0.002629169075 Eh    ::
         :: -> anisotropic XC          0.021859482211 Eh    ::
         :: -> dispersion             -0.019444713109 Eh    ::
         :: repulsion energy           0.576572041849 Eh    ::
         :: add. restraining           0.000000000000 Eh    ::
         :: total charge              -0.000000000000 e     ::
         :::::::::::::::::::::::::::::::::::::::::::::::::::::


Property printout bound to 'properties.out'

           -------------------------------------------------
          | TOTAL ENERGY              -44.113599177224 Eh   |
          | GRADIENT NORM               0.098836244248 Eh/α |
          | HOMO-LUMO GAP               2.705048315454 eV   |
           -------------------------------------------------

------------------------------------------------------------------------
 * finished run on 2025/01/14 at 20:45:15.830     
------------------------------------------------------------------------
 total:
 * wall-time:     0 d,  0 h,  0 min,  0.450 sec
 *  cpu-time:     0 d,  0 h,  0 min,  0.532 sec
 * ratio c/w:     1.182 speedup
 SCF:
 * wall-time:     0 d,  0 h,  0 min,  0.052 sec
 *  cpu-time:     0 d,  0 h,  0 min,  0.198 sec
 * ratio c/w:     3.810 speedup


-------------------------   --------------------
FINAL SINGLE POINT ENERGY       -44.113599177220
-------------------------   --------------------

------------------------------------------------------------------------------
                         ORCA GEOMETRY RELAXATION STEP
------------------------------------------------------------------------------

Reading the OPT-File                    .... done
Getting information on internals        .... done
Copying old internal coords+grads       .... done
Making the new internal coordinates     .... (new redundants).... done
Validating the new internal coordinates .... (new redundants).... done
Calculating the B-matrix                .... done
Calculating the G,G- and P matrices     .... done
Transforming gradient to internals      .... done
Projecting the internal gradient        .... done
Number of atoms                         ....  22
Number of internal coordinates          .... 138
Current Energy                          ....   -44.113599177 Eh
Current gradient norm                   ....     0.098836244 Eh/bohr
Maximum allowed component of the step   ....  0.300
Current trust radius                    ....  0.300
Evaluating the initial hessian          ....  (Almloef) done
Projecting the Hessian                  .... done
Forming the augmented Hessian           .... done
Diagonalizing the augmented Hessian     .... done
Last element of RFO vector              ....  0.991869235
Lowest eigenvalues of augmented Hessian:
 -0.009341357  0.000036372  0.001559346  0.001946146  0.010484977
Length of the computed step             ....  0.128304440
The final length of the internal step   ....  0.128304440
Converting the step to cartesian space:
 Initial RMS(Int)=    0.0109219992
Transforming coordinates:
 Iter   0:  RMS(Cart)=    0.0316729942 RMS(Int)=    1.7738486027
 Iter   1:  RMS(Cart)=    0.0003096271 RMS(Int)=    0.5348566852
 Iter   2:  RMS(Cart)=    0.0000067155 RMS(Int)=    0.0000040164
 Iter   3:  RMS(Cart)=    0.0000003491 RMS(Int)=    0.0000002195
 Iter   4:  RMS(Cart)=    0.0000001148 RMS(Int)=    0.0000000795
 Iter   5:  RMS(Cart)=    0.0000000563 RMS(Int)=    0.0000000390
done
Storing new coordinates                 .... done

                                .--------------------.
          ----------------------|Geometry convergence|-------------------------
          Item                value                   Tolerance       Converged
          ---------------------------------------------------------------------
          RMS gradient        0.0068537467            0.0001000000      NO
          MAX gradient        0.0401509925            0.0003000000      NO
          RMS step            0.0109219992            0.0020000000      NO
          MAX step            0.0579225875            0.0040000000      NO
          ........................................................
          Max(Bonds)      0.0307      Max(Angles)    1.46
          Max(Dihed)        0.57      Max(Improp)    0.00
          ---------------------------------------------------------------------

The optimization has not yet converged - more geometry cycles are needed


    ---------------------------------------------------------------------------
                         Redundant Internal Coordinates
                            (Angstroem and degrees)

        Definition                    Value    dE/dq     Step     New-Value
    ----------------------------------------------------------------------------
     1. B(C   1,N   0)                1.1607  0.037125 -0.0150    1.1457   
     2. B(C   2,C   1)                1.4207  0.006363 -0.0059    1.4148   
     3. B(C   3,C   2)                1.3420 -0.012402  0.0092    1.3512   
     4. B(C   4,C   3)                1.4533  0.018854 -0.0193    1.4340   
     5. B(C   5,C   4)                1.3961 -0.001952  0.0013    1.3974   
     6. B(C   6,C   5)                1.3983  0.018821 -0.0177    1.3806   
     7. B(C   7,C   6)                1.3931 -0.003865  0.0029    1.3960   
     8. B(O   8,C   7)                1.3628  0.009995 -0.0084    1.3544   
     9. B(C   9,C   7)                1.3892  0.000429 -0.0000    1.3892   
    10. B(C  10,C   9)                1.3932  0.010521 -0.0081    1.3850   
    11. B(C  10,C   4)                1.3926 -0.004901  0.0043    1.3970   
    12. B(O  11,C  10)                1.4074  0.030281 -0.0307    1.3768   
    13. B(C  12,C   2)                1.4791  0.005511 -0.0061    1.4730   
    14. B(C  12,O  11)                1.3929  0.025519 -0.0244    1.3685   
    15. B(O  13,C  12)                1.2257  0.040151 -0.0206    1.2052   
    16. B(H  14,C   3)                1.0869  0.003840 -0.0054    1.0814   
    17. B(H  15,C   5)                1.0874  0.005760 -0.0092    1.0782   
    18. B(H  16,C   6)                1.0873  0.006378 -0.0098    1.0776   
    19. B(H  17,O   8)                0.9719  0.005063 -0.0053    0.9666   
    20. B(H  18,C   9)                1.0845  0.003766 -0.0053    1.0792   
    21. B(O  19,H  16)                4.7037 -0.001365  0.0014    4.7052   
    22. B(O  19,H  15)                4.3413 -0.003720  0.0030    4.3443   
    23. B(O  19,C   6)                5.3151  0.001945 -0.0050    5.3101   
    24. B(O  19,C   5)                5.1446  0.000385 -0.0037    5.1409   
    25. B(H  20,H  16)                5.1623  0.000370 -0.0070    5.1552   
    26. B(H  20,H  15)                5.1424  0.002440 -0.0083    5.1342   
    27. B(H  20,O  19)                0.9690  0.004970 -0.0073    0.9617   
    28. B(H  21,H  15)                4.8031  0.000608 -0.0048    4.7983   
    29. B(H  21,O  19)                0.9690  0.006804 -0.0073    0.9617   
    30. L(N   0,C   1,C   2,C   3, 1) 176.73 -0.000907    0.11    176.83   
    31. L(N   0,C   1,C   2,C   3, 2) 180.00 -0.000000    0.00    180.00   
    32. A(C   1,C   2,C  12)          118.17  0.001589   -0.28    117.89   
    33. A(C   3,C   2,C  12)          121.51  0.001992   -0.13    121.38   
    34. A(C   1,C   2,C   3)          120.32 -0.003581    0.40    120.72   
    35. A(C   2,C   3,C   4)          120.39  0.005046   -0.53    119.86   
    36. A(C   4,C   3,H  14)          118.09 -0.002525    0.28    118.37   
    37. A(C   2,C   3,H  14)          121.52 -0.002521    0.26    121.77   
    38. A(C   5,C   4,C  10)          118.92 -0.001193    0.00    118.92   
    39. A(C   3,C   4,C  10)          118.87  0.004704   -0.52    118.34   
    40. A(C   3,C   4,C   5)          122.21 -0.003512    0.52    122.74   
    41. A(C   6,C   5,H  15)          119.04 -0.001190    0.19    119.23   
    42. A(C   4,C   5,H  15)          121.13  0.002032   -0.42    120.71   
    43. A(C   4,C   5,C   6)          119.83 -0.000843    0.23    120.06   
    44. A(C   6,C   5,O  19)           89.32 -0.001236    0.13     89.44   
    45. A(C   4,C   5,O  19)          142.40  0.002182   -0.31    142.09   
    46. A(H  15,C   5,O  19)           38.12 -0.000115    0.02     38.14   
    47. A(C   7,C   6,H  16)          119.79  0.000828   -0.25    119.54   
    48. A(C   5,C   6,C   7)          120.05 -0.000190    0.06    120.11   
    49. A(C   5,C   6,H  16)          120.16 -0.000637    0.19    120.35   
    50. A(H  16,C   6,O  19)           50.79 -0.000109    0.10     50.89   
    51. A(C   7,C   6,O  19)          152.30  0.001149   -0.10    152.20   
    52. A(C   5,C   6,O  19)           75.43 -0.000650    0.06     75.49   
    53. A(O   8,C   7,C   9)          121.51  0.000185    0.05    121.55   
    54. A(C   6,C   7,C   9)          120.89 -0.000178   -0.12    120.78   
    55. A(C   6,C   7,O   8)          117.60 -0.000008    0.07    117.67   
    56. A(C   7,O   8,H  17)          109.09 -0.003575    0.54    109.63   
    57. A(C  10,C   9,H  18)          119.95  0.001469   -0.24    119.71   
    58. A(C   7,C   9,H  18)          121.75 -0.000230    0.03    121.78   
    59. A(C   7,C   9,C  10)          118.30 -0.001238    0.21    118.51   
    60. A(C   4,C  10,O  11)          120.59 -0.007147    0.82    121.41   
    61. A(C   4,C  10,C   9)          122.01  0.003641   -0.39    121.63   
    62. A(C   9,C  10,O  11)          117.40  0.003505   -0.44    116.96   
    63. A(C  10,O  11,C  12)          121.81 -0.003682    0.28    122.09   
    64. A(O  11,C  12,O  13)          120.85  0.011943   -1.46    119.39   
    65. A(C   2,C  12,O  13)          122.31 -0.011029    1.39    123.69   
    66. A(C   2,C  12,O  11)          116.84 -0.000914    0.08    116.92   
    67. A(C   5,O  19,C   6)           15.25  0.001885   -0.18     15.07   
    68. A(C   6,O  19,H  21)          135.94  0.002588   -0.50    135.44   
    69. A(C   6,O  19,H  20)          119.82 -0.000204   -0.34    119.48   
    70. A(C   5,O  19,H  21)          121.21  0.000755   -0.31    120.90   
    71. A(C   5,O  19,H  20)          133.52  0.001498   -0.49    133.04   
    72. A(H  20,O  19,H  21)          103.98 -0.002331    0.87    104.84   
    73. D(C   4,C   3,C   2,C   1)    180.00  0.000015   -0.01    179.99   
    74. D(H  14,C   3,C   2,C  12)   -180.00 -0.000008    0.02   -179.98   
    75. D(C   4,C   3,C   2,C  12)     -0.00  0.000014   -0.01     -0.01   
    76. D(H  14,C   3,C   2,C   1)      0.00 -0.000007    0.02      0.02   
    77. D(C   5,C   4,C   3,C   2)   -180.00  0.000019    0.01   -179.99   
    78. D(C  10,C   4,C   3,H  14)    180.00 -0.000004   -0.03    179.97   
    79. D(C  10,C   4,C   3,C   2)      0.00 -0.000026    0.00      0.00   
    80. D(C   5,C   4,C   3,H  14)     -0.00  0.000041   -0.01     -0.01   
    81. D(O  19,C   5,C   4,C   3)     43.78  0.000734   -0.24     43.54   
    82. D(C   6,C   5,C   4,C  10)     -0.00  0.000084    0.01      0.01   
    83. D(H  15,C   5,C   4,C  10)    180.00 -0.000507    0.11    180.11   
    84. D(C   6,C   5,C   4,C   3)    180.00  0.000039    0.00    180.00   
    85. D(H  15,C   5,C   4,C   3)     -0.00 -0.000552    0.10      0.10   
    86. D(O  19,C   5,C   4,C  10)   -136.22  0.000779   -0.23   -136.45   
    87. D(C   7,C   6,C   5,C   4)      0.00 -0.000112    0.01      0.01   
    88. D(O  19,C   6,C   5,H  15)     24.97 -0.000397   -0.03     24.94   
    89. D(O  19,C   6,C   5,C   4)   -155.03 -0.000975    0.07   -154.96   
    90. D(H  16,C   6,C   5,O  19)    -24.97  0.000308    0.02    -24.95   
    91. D(H  16,C   6,C   5,H  15)      0.00 -0.000089   -0.01     -0.01   
    92. D(H  16,C   6,C   5,C   4)   -180.00 -0.000667    0.09   -179.91   
    93. D(C   7,C   6,C   5,O  19)    155.03  0.000863   -0.05    154.98   
    94. D(C   7,C   6,C   5,H  15)    180.00  0.000466   -0.08    179.92   
    95. D(C   9,C   7,C   6,O  19)    118.48 -0.000259    0.10    118.58   
    96. D(C   9,C   7,C   6,H  16)    180.00  0.000600   -0.10    179.90   
    97. D(C   9,C   7,C   6,C   5)      0.00  0.000048   -0.03     -0.03   
    98. D(O   8,C   7,C   6,O  19)    -61.52 -0.000312    0.09    -61.43   
    99. D(O   8,C   7,C   6,H  16)      0.00  0.000547   -0.11     -0.11   
   100. D(O   8,C   7,C   6,C   5)   -180.00 -0.000005   -0.04   -180.04   
   101. D(H  17,O   8,C   7,C   6)   -180.00  0.000041   -0.02   -180.02   
   102. D(H  17,O   8,C   7,C   9)      0.00 -0.000012   -0.03     -0.03   
   103. D(C  10,C   9,C   7,C   6)     -0.00  0.000043    0.01      0.01   
   104. D(H  18,C   9,C   7,O   8)     -0.00  0.000034    0.02      0.02   
   105. D(H  18,C   9,C   7,C   6)   -180.00 -0.000021    0.01   -179.99   
   106. D(C  10,C   9,C   7,O   8)    180.00  0.000098    0.02    180.02   
   107. D(O  11,C  10,C   9,H  18)     -0.00  0.000026   -0.00     -0.00   
   108. D(O  11,C  10,C   9,C   7)   -180.00 -0.000037   -0.01   -180.01   
   109. D(C   4,C  10,C   9,H  18)    180.00 -0.000009    0.02    180.02   
   110. D(C   4,C  10,C   9,C   7)      0.00 -0.000072    0.02      0.02   
   111. D(O  11,C  10,C   4,C   5)   -180.00 -0.000028   -0.00   -180.00   
   112. D(O  11,C  10,C   4,C   3)      0.00  0.000016    0.01      0.01   
   113. D(C   9,C  10,C   4,C   5)      0.00  0.000008   -0.03     -0.03   
   114. D(C   9,C  10,C   4,C   3)   -180.00  0.000052   -0.02   -180.02   
   115. D(C  12,O  11,C  10,C   9)    180.00 -0.000029    0.01    180.01   
   116. D(C  12,O  11,C  10,C   4)     -0.00  0.000006   -0.02     -0.02   
   117. D(O  13,C  12,O  11,C  10)   -180.00 -0.000004    0.00   -180.00   
   118. D(C   2,C  12,O  11,C  10)      0.00 -0.000017    0.01      0.01   
   119. D(O  13,C  12,C   2,C   3)   -180.00 -0.000007    0.01   -179.99   
   120. D(O  13,C  12,C   2,C   1)      0.00 -0.000007    0.02      0.02   
   121. D(O  11,C  12,C   2,C   3)      0.00  0.000007    0.00      0.00   
   122. D(O  11,C  12,C   2,C   1)   -180.00  0.000006    0.01   -179.99   
   123. D(H  21,O  19,C   6,C   5)    -16.82 -0.000158   -0.20    -17.02   
   124. D(H  20,O  19,C   6,H  16)    -51.85  0.000478    0.23    -51.62   
   125. D(H  20,O  19,C   6,C   7)     28.08  0.000937   -0.05     28.03   
   126. D(C   6,O  19,C   5,H  15)   -143.28 -0.000034   -0.14   -143.43   
   127. D(C   6,O  19,C   5,C   4)    143.11 -0.000918    0.29    143.40   
   128. D(H  21,O  19,C   5,H  15)     23.11  0.000377   -0.39     22.73   
   129. D(H  21,O  19,C   5,C   6)    166.40  0.000410   -0.24    166.15   
   130. D(H  20,O  19,C   6,C   5)    156.25  0.000370    0.11    156.36   
   131. D(H  21,O  19,C   5,C   4)    -50.49 -0.000508    0.05    -50.44   
   132. D(H  20,O  19,C   5,H  15)   -172.09 -0.000417    0.13   -171.95   
   133. D(H  20,O  19,C   5,C   6)    -28.81 -0.000383    0.28    -28.53   
   134. D(H  21,O  19,C   6,C   7)   -144.99  0.000409   -0.35   -145.34   
   135. D(H  20,O  19,C   5,C   4)    114.31 -0.001301    0.57    114.87   
   136. D(C   5,O  19,C   6,H  16)    151.90  0.000108    0.12    152.02   
   137. D(C   5,O  19,C   6,C   7)   -128.17  0.000567   -0.15   -128.33   
   138. D(H  21,O  19,C   6,H  16)    135.08 -0.000050   -0.08    135.00   
    ----------------------------------------------------------------------------

         *************************************************************
         *                GEOMETRY OPTIMIZATION CYCLE   2            *
         *************************************************************
---------------------------------
CARTESIAN COORDINATES (ANGSTROEM)
---------------------------------
  N     4.543354   -0.141462    2.054946
  C     3.478463    0.044680    1.675632
  C     2.169022    0.208544    1.165681
  C     1.642808   -0.696121    0.311109
  C     0.313438   -0.511802   -0.194182
  C    -0.289521   -1.409009   -1.079688
  C    -1.573258   -1.177203   -1.531673
  C    -2.272144   -0.046288   -1.105814
  O    -3.527814    0.133008   -1.580650
  C    -1.691775    0.858338   -0.225630
  C    -0.403503    0.613341    0.220060
  O     0.140583    1.530353    1.091053
  C     1.404810    1.391842    1.596336
  O     1.832733    2.224099    2.355711
  H     2.197999   -1.567216   -0.008950
  H     0.236752   -2.287621   -1.416746
  H    -2.043250   -1.866693   -2.213501
  H    -3.901005    0.945488   -1.213276
  H    -2.217156    1.737667    0.114182
  O    -0.947484   -6.434366   -1.940937
  H    -1.721876   -7.004614   -1.939713
  H    -0.197913   -7.036790   -1.946423

----------------------------
CARTESIAN COORDINATES (A.U.)
----------------------------
  NO LB    ZA    FRAG    MASS        X           Y           Z
   0 N   7.0000    0    14.007    8.585694   -0.267324    3.883285
   1 C   6.0000    0    12.011    6.573342    0.084434    3.166485
   2 C   6.0000    0    12.011    4.098858    0.394091    2.202819
   3 C   6.0000    0    12.011    3.104457   -1.315478    0.587911
   4 C   6.0000    0    12.011    0.592311   -0.967165   -0.366950
   5 C   6.0000    0    12.011   -0.547114   -2.662642   -2.040314
   6 C   6.0000    0    12.011   -2.973026   -2.224592   -2.894443
   7 C   6.0000    0    12.011   -4.293730   -0.087472   -2.089686
   8 O   8.0000    0    15.999   -6.666602    0.251349   -2.986995
   9 C   6.0000    0    12.011   -3.196992    1.622023   -0.426380
  10 C   6.0000    0    12.011   -0.762509    1.159047    0.415853
  11 O   8.0000    0    15.999    0.265663    2.891947    2.061791
  12 C   6.0000    0    12.011    2.654706    2.630200    3.016637
  13 O   8.0000    0    15.999    3.463364    4.202938    4.451650
  14 H   1.0000    0     1.008    4.153615   -2.961609   -0.016913
  15 H   1.0000    0     1.008    0.447397   -4.322976   -2.677261
  16 H   1.0000    0     1.008   -3.861183   -3.527539   -4.182910
  17 H   1.0000    0     1.008   -7.371832    1.786714   -2.292759
  18 H   1.0000    0     1.008   -4.189818    3.283714    0.215773
  19 O   8.0000    0    15.999   -1.790485  -12.159189   -3.667840
  20 H   1.0000    0     1.008   -3.253875  -13.236801   -3.665526
  21 H   1.0000    0     1.008   -0.374002  -13.297606   -3.678207

      -----------------------------------------------------------      
     |                   =====================                   |     
     |                           x T B                           |     
     |                   =====================                   |     
     |                         S. Grimme                         |     
     |          Mulliken Center for Theoretical Chemistry        |     
     |                    University of Bonn                     |     
      -----------------------------------------------------------      

   * xtb version 6.6.1 (8d0f1dd) compiled by 'stahn@M-Bot' on 2023-08-01

   xtb is free software: you can redistribute it and/or modify it under
   the terms of the GNU Lesser General Public License as published by
   the Free Software Foundation, either version 3 of the License, or
   (at your option) any later version.
   
   xtb is distributed in the hope that it will be useful,
   but WITHOUT ANY WARRANTY; without even the implied warranty of
   MERCHANTABILITY or FITNESS FOR A PARTICULAR PURPOSE.  See the
   GNU Lesser General Public License for more details.
   
   Cite this work as:
   * C. Bannwarth, E. Caldeweyher, S. Ehlert, A. Hansen, P. Pracht,
     J. Seibert, S. Spicher, S. Grimme, WIREs Comput. Mol. Sci., 2020, 11,
     e01493. DOI: 10.1002/wcms.1493
   
   for GFN2-xTB:
   * C. Bannwarth, S. Ehlert and S. Grimme., J. Chem. Theory Comput., 2019,
     15, 1652-1671. DOI: 10.1021/acs.jctc.8b01176
   for GFN1-xTB:
   * S. Grimme, C. Bannwarth, P. Shushkov, J. Chem. Theory Comput., 2017,
     13, 1989-2009. DOI: 10.1021/acs.jctc.7b00118
   for GFN0-xTB:
   * P. Pracht, E. Caldeweyher, S. Ehlert, S. Grimme, ChemRxiv, 2019, preprint.
     DOI: 10.26434/chemrxiv.8326202.v1
   for GFN-FF:
   * S. Spicher and S. Grimme, Angew. Chem. Int. Ed., 2020, 59, 15665-15673.
     DOI: 10.1002/anie.202004239
   
   for ALPB and GBSA implicit solvation:
   * S. Ehlert, M. Stahn, S. Spicher, S. Grimme, J. Chem. Theory Comput.,
     2021, 17, 4250-4261. DOI: 10.1021/acs.jctc.1c00471
   
   for DFT-D4:
   * E. Caldeweyher, C. Bannwarth and S. Grimme, J. Chem. Phys., 2017,
     147, 034112. DOI: 10.1063/1.4993215
   * E. Caldeweyher, S. Ehlert, A. Hansen, H. Neugebauer, S. Spicher,
     C. Bannwarth and S. Grimme, J. Chem. Phys., 2019, 150, 154122.
     DOI: 10.1063/1.5090222
   * E. Caldeweyher, J.-M. Mewes, S. Ehlert and S. Grimme, Phys. Chem. Chem. Phys.
     2020, 22, 8499-8512. DOI: 10.1039/D0CP00502A
   
   for sTDA-xTB:
   * S. Grimme and C. Bannwarth, J. Chem. Phys., 2016, 145, 054103.
     DOI: 10.1063/1.4959605
   
   in the mass-spec context:
   * V. Asgeirsson, C. Bauer and S. Grimme, Chem. Sci., 2017, 8, 4879.
     DOI: 10.1039/c7sc00601b
   * J. Koopman and S. Grimme, ACS Omega 2019, 4, 12, 15120-15133.
     DOI: 10.1021/acsomega.9b02011
   
   for metadynamics refer to:
   * S. Grimme, J. Chem. Theory Comput., 2019, 155, 2847-2862
     DOI: 10.1021/acs.jctc.9b00143
   
   for SPH calculations refer to:
   * S. Spicher and S. Grimme, J. Chem. Theory Comput., 2021, 17, 1701-1714
     DOI: 10.1021/acs.jctc.0c01306
   
   with help from (in alphabetical order)
   P. Atkinson, C. Bannwarth, F. Bohle, G. Brandenburg, E. Caldeweyher
   M. Checinski, S. Dohm, S. Ehlert, S. Ehrlich, I. Gerasimov, C. Hölzer
   A. Katbashev, J. Koopman, C. Lavigne, S. Lehtola, F. März, M. Müller,
   F. Musil, H. Neugebauer, J. Pisarek, C. Plett, P. Pracht, F. Pultar,
   J. Seibert, P. Shushkov, S. Spicher, M. Stahn, M. Steiner, T. Strunk,
   J. Stückrath, T. Rose, and J. Unsleber
   
 * started run on 2025/01/14 at 20:45:30.107     

           -------------------------------------------------
          |                Calculation Setup                |
           -------------------------------------------------

          program call               : /home/jang/cal_tmp/10_orca/orca_5_0_4_linux_x86-64_shared_openmpi411/otool_xtb /home/jang/cal_tmp/10_orca/Gen_chromophore/Gen_molecular_pairs_cal/mol_1_2.xyz/input_XTB.xyz --grad -c 0 -u 0 -P 4 --namespace /home/jang/cal_tmp/10_orca/Gen_chromophore/Gen_molecular_pairs_cal/mol_1_2.xyz/input --input /home/jang/cal_tmp/10_orca/Gen_chromophore/Gen_molecular_pairs_cal/mol_1_2.xyz/input_XTB.input.tmp --acc 1.000000
          hostname                   : node02
          calculation namespace      : /home/jang/cal_tmp/10_orca/Gen_chromophore/Gen_molecular_pairs_cal/mol_1_2.xyz/input
          coordinate file            : /home/jang/cal_tmp/10_orca/Gen_chromophore/Gen_molecular_pairs_cal/mol_1_2.xyz/input_XTB.xyz
          omp threads                :                     4

   ID    Z sym.   atoms
    1    7 N      1
    2    6 C      2-8, 10, 11, 13
    3    8 O      9, 12, 14, 20
    4    1 H      15-19, 21, 22

molecular fragmentation (1/2 indicates fragments):
1111111111111111111222
# atoms in fragment 1/2:    19     3
 fragment masses (1/2) :      187.15       18.02
CMA distance (Bohr)    :  13.704
constraining FC (au)   :  0.0500

           -------------------------------------------------
          |                 G F N 2 - x T B                 |
           -------------------------------------------------

        Reference                      10.1021/acs.jctc.8b01176
      * Hamiltonian:
        H0-scaling (s, p, d)           1.850000    2.230000    2.230000
        zeta-weighting                 0.500000
      * Dispersion:
        s8                             2.700000
        a1                             0.520000
        a2                             5.000000
        s9                             5.000000
      * Repulsion:
        kExp                           1.500000    1.000000
        rExp                           1.000000
      * Coulomb:
        alpha                          2.000000
        third order                    shell-resolved
        anisotropic                    true
        a3                             3.000000
        a5                             4.000000
        cn-shift                       1.200000
        cn-exp                         4.000000
        max-rad                        5.000000

q/qsh data taken from xtbrestart
CAMM data taken from xtbrestart

          ...................................................
          :                      SETUP                      :
          :.................................................:
          :  # basis functions                  67          :
          :  # atomic orbitals                  67          :
          :  # shells                           37          :
          :  # electrons                        76          :
          :  max. iterations                   250          :
          :  Hamiltonian                  GFN2-xTB          :
          :  restarted?                       true          :
          :  GBSA solvation                  false          :
          :  PC potential                    false          :
          :  electronic temp.          300.0000000     K    :
          :  accuracy                    1.0000000          :
          :  -> integral cutoff          0.2500000E+02      :
          :  -> integral neglect         0.1000000E-07      :
          :  -> SCF convergence          0.1000000E-05 Eh   :
          :  -> wf. convergence          0.1000000E-03 e    :
          :  Broyden damping             0.4000000          :
          ...................................................

 iter      E             dE          RMSdq      gap      omega  full diag
   1    -44.7292018 -0.447292E+02  0.225E-01    2.68       0.0  T
   2    -44.7295345 -0.332716E-03  0.144E-01    2.69       1.0  T
   3    -44.7296138 -0.792959E-04  0.813E-02    2.69       1.0  T
   4    -44.7296230 -0.920628E-05  0.208E-02    2.68       1.0  T
   5    -44.7296271 -0.406152E-05  0.874E-03    2.69       2.4  T
   6    -44.7296285 -0.140303E-05  0.349E-03    2.69       6.1  T
   7    -44.7296286 -0.971502E-07  0.175E-03    2.69      12.2  T
   8    -44.7296286 -0.125694E-07  0.602E-04    2.69      35.4  T
   9    -44.7296286 -0.136637E-09  0.388E-04    2.69      54.9  T

   *** convergence criteria satisfied after 9 iterations ***

         #    Occupation            Energy/Eh            Energy/eV
      -------------------------------------------------------------
         1        2.0000           -0.7665302             -20.8583
       ...           ...                  ...                  ...
        32        2.0000           -0.4658322             -12.6759
        33        2.0000           -0.4578954             -12.4600
        34        2.0000           -0.4564584             -12.4209
        35        2.0000           -0.4355372             -11.8516
        36        2.0000           -0.4351101             -11.8399
        37        2.0000           -0.4220943             -11.4858
        38        2.0000           -0.4139424             -11.2639 (HOMO)
        39                         -0.3151979              -8.5770 (LUMO)
        40                         -0.2663581              -7.2480
        41                         -0.2427280              -6.6050
        42                         -0.2210308              -6.0146
        43                         -0.2150993              -5.8532
       ...                                ...                  ...
        67                          1.1637238              31.6665
      -------------------------------------------------------------
                  HL-Gap            0.0987445 Eh            2.6870 eV
             Fermi-level           -0.3645701 Eh           -9.9205 eV

 SCC (total)                   0 d,  0 h,  0 min,  0.047 sec
 SCC setup                      ...        0 min,  0.000 sec (  0.959%)
 Dispersion                     ...        0 min,  0.001 sec (  2.211%)
 classical contributions        ...        0 min,  0.000 sec (  0.131%)
 integral evaluation            ...        0 min,  0.003 sec (  5.807%)
 iterations                     ...        0 min,  0.037 sec ( 78.518%)
 molecular gradient             ...        0 min,  0.005 sec ( 11.526%)
 printout                       ...        0 min,  0.000 sec (  0.674%)

         :::::::::::::::::::::::::::::::::::::::::::::::::::::
         ::                     SUMMARY                     ::
         :::::::::::::::::::::::::::::::::::::::::::::::::::::
         :: total energy             -44.119589732258 Eh    ::
         :: gradient norm              0.038429789813 Eh/a0 ::
         :: HOMO-LUMO gap              2.686974341118 eV    ::
         ::.................................................::
         :: SCC energy               -44.729628585715 Eh    ::
         :: -> isotropic ES            0.100139395012 Eh    ::
         :: -> anisotropic ES          0.002809371367 Eh    ::
         :: -> anisotropic XC          0.020513788198 Eh    ::
         :: -> dispersion             -0.019586880098 Eh    ::
         :: repulsion energy           0.610088380911 Eh    ::
         :: add. restraining           0.000000000000 Eh    ::
         :: total charge               0.000000000000 e     ::
         :::::::::::::::::::::::::::::::::::::::::::::::::::::


Property printout bound to 'properties.out'

           -------------------------------------------------
          | TOTAL ENERGY              -44.119589732258 Eh   |
          | GRADIENT NORM               0.038429789813 Eh/α |
          | HOMO-LUMO GAP               2.686974341118 eV   |
           -------------------------------------------------

------------------------------------------------------------------------
 * finished run on 2025/01/14 at 20:45:31.818     
------------------------------------------------------------------------
 total:
 * wall-time:     0 d,  0 h,  0 min,  1.710 sec
 *  cpu-time:     0 d,  0 h,  0 min,  0.684 sec
 * ratio c/w:     0.400 speedup
 SCF:
 * wall-time:     0 d,  0 h,  0 min,  0.048 sec
 *  cpu-time:     0 d,  0 h,  0 min,  0.180 sec
 * ratio c/w:     3.767 speedup


-------------------------   --------------------
FINAL SINGLE POINT ENERGY       -44.119589732260
-------------------------   --------------------

------------------------------------------------------------------------------
                         ORCA GEOMETRY RELAXATION STEP
------------------------------------------------------------------------------

Reading the OPT-File                    .... done
Getting information on internals        .... done
Copying old internal coords+grads       .... done
Making the new internal coordinates     .... (new redundants).... done
Validating the new internal coordinates .... (new redundants).... done
Calculating the B-matrix                .... done
Calculating the G,G- and P matrices     .... done
Transforming gradient to internals      .... done
Projecting the internal gradient        .... done
Number of atoms                         ....  22
Number of internal coordinates          .... 138
Current Energy                          ....   -44.119589732 Eh
Current gradient norm                   ....     0.038429790 Eh/bohr
Maximum allowed component of the step   ....  0.300
Current trust radius                    ....  0.300
Updating the Hessian (BFGS)             .... done
Forming the augmented Hessian           .... done
Diagonalizing the augmented Hessian     .... done
Last element of RFO vector              ....  0.993040887
Lowest eigenvalues of augmented Hessian:
 -0.001713617  0.000046176  0.001559348  0.001946686  0.010485287
Length of the computed step             ....  0.118595421
The final length of the internal step   ....  0.118595421
Converting the step to cartesian space:
 Initial RMS(Int)=    0.0100955127
Transforming coordinates:
 Iter   0:  RMS(Cart)=    0.0159885494 RMS(Int)=    0.0100837895
 Iter   1:  RMS(Cart)=    0.0001258208 RMS(Int)=    0.0000710420
 Iter   2:  RMS(Cart)=    0.0000021835 RMS(Int)=    0.0000009781
 Iter   3:  RMS(Cart)=    0.0000000837 RMS(Int)=    0.0000000566
done
Storing new coordinates                 .... done

                                .--------------------.
          ----------------------|Geometry convergence|-------------------------
          Item                value                   Tolerance       Converged
          ---------------------------------------------------------------------
          Energy change      -0.0059905550            0.0000050000      NO
          RMS gradient        0.0019987356            0.0001000000      NO
          MAX gradient        0.0131577747            0.0003000000      NO
          RMS step            0.0100955127            0.0020000000      NO
          MAX step            0.0406623458            0.0040000000      NO
          ........................................................
          Max(Bonds)      0.0215      Max(Angles)    1.16
          Max(Dihed)        0.91      Max(Improp)    0.00
          ---------------------------------------------------------------------

The optimization has not yet converged - more geometry cycles are needed


    ---------------------------------------------------------------------------
                         Redundant Internal Coordinates
                            (Angstroem and degrees)

        Definition                    Value    dE/dq     Step     New-Value
    ----------------------------------------------------------------------------
     1. B(C   1,N   0)                1.1457  0.000426 -0.0015    1.1442   
     2. B(C   2,C   1)                1.4148  0.001240 -0.0021    1.4127   
     3. B(C   3,C   2)                1.3512 -0.006428  0.0072    1.3583   
     4. B(C   4,C   3)                1.4341  0.005788 -0.0097    1.4244   
     5. B(C   5,C   4)                1.3974 -0.003504  0.0039    1.4013   
     6. B(C   6,C   5)                1.3806  0.005184 -0.0086    1.3720   
     7. B(C   7,C   6)                1.3960 -0.003733  0.0042    1.4002   
     8. B(O   8,C   7)                1.3544  0.004332 -0.0057    1.3487   
     9. B(C   9,C   7)                1.3892 -0.000175  0.0005    1.3897   
    10. B(C  10,C   9)                1.3850 -0.000746  0.0009    1.3860   
    11. B(C  10,C   4)                1.3970 -0.004616  0.0060    1.4029   
    12. B(O  11,C  10)                1.3768  0.013158 -0.0207    1.3561   
    13. B(C  12,C   2)                1.4730  0.000533 -0.0011    1.4719   
    14. B(C  12,O  11)                1.3685  0.004614 -0.0081    1.3604   
    15. B(O  13,C  12)                1.2052  0.005966 -0.0059    1.1993   
    16. B(H  14,C   3)                1.0814  0.000425 -0.0012    1.0802   
    17. B(H  15,C   5)                1.0782  0.000170 -0.0011    1.0771   
    18. B(H  16,C   6)                1.0776  0.000228 -0.0014    1.0762   
    19. B(H  17,O   8)                0.9666  0.000576 -0.0012    0.9654   
    20. B(H  18,C   9)                1.0792  0.000196 -0.0008    1.0784   
    21. B(O  19,H  16)                4.7052 -0.000843 -0.0112    4.6940   
    22. B(O  19,H  15)                4.3443 -0.001079 -0.0137    4.3305   
    23. B(O  19,C   6)                5.3101  0.000611 -0.0162    5.2938   
    24. B(O  19,C   5)                5.1409  0.000036 -0.0162    5.1247   
    25. B(H  20,H  16)                5.1552  0.000601 -0.0207    5.1345   
    26. B(H  20,H  15)                5.1342  0.000428 -0.0195    5.1147   
    27. B(H  20,O  19)                0.9617  0.000543 -0.0022    0.9595   
    28. B(H  21,H  15)                4.7983  0.000705 -0.0215    4.7768   
    29. B(H  21,O  19)                0.9617  0.000698 -0.0021    0.9596   
    30. L(N   0,C   1,C   2,C   3, 1) 176.83 -0.001324    0.22    177.05   
    31. L(N   0,C   1,C   2,C   3, 2) 180.00 -0.000000    0.00    180.00   
    32. A(C   1,C   2,C  12)          117.90  0.000855   -0.22    117.68   
    33. A(C   3,C   2,C  12)          121.38  0.000857   -0.09    121.30   
    34. A(C   1,C   2,C   3)          120.72 -0.001711    0.30    121.03   
    35. A(C   2,C   3,C   4)          119.86  0.000773   -0.11    119.75   
    36. A(C   4,C   3,H  14)          118.37 -0.001402    0.28    118.65   
    37. A(C   2,C   3,H  14)          121.77  0.000629   -0.17    121.60   
    38. A(C   5,C   4,C  10)          118.92  0.000248   -0.17    118.75   
    39. A(C   3,C   4,C  10)          118.35  0.002286   -0.40    117.94   
    40. A(C   3,C   4,C   5)          122.73 -0.002533    0.57    123.30   
    41. A(C   6,C   5,H  15)          119.23 -0.000819    0.30    119.53   
    42. A(C   4,C   5,H  15)          120.71  0.002068   -0.65    120.06   
    43. A(C   4,C   5,C   6)          120.06 -0.001249    0.36    120.42   
    44. A(C   6,C   5,O  19)           89.44 -0.000286    0.06     89.51   
    45. A(C   4,C   5,O  19)          142.09  0.001626   -0.32    141.77   
    46. A(H  15,C   5,O  19)           38.14 -0.000671    0.11     38.25   
    47. A(C   7,C   6,H  16)          119.54  0.001252   -0.41    119.13   
    48. A(C   5,C   6,C   7)          120.11 -0.000369    0.09    120.20   
    49. A(C   5,C   6,H  16)          120.35 -0.000882    0.32    120.67   
    50. A(H  16,C   6,O  19)           50.89 -0.000748    0.25     51.14   
    51. A(C   7,C   6,O  19)          152.20  0.000859   -0.05    152.15   
    52. A(C   5,C   6,O  19)           75.49 -0.000232   -0.02     75.47   
    53. A(O   8,C   7,C   9)          121.55 -0.000745    0.21    121.76   
    54. A(C   6,C   7,C   9)          120.77  0.000870   -0.30    120.47   
    55. A(C   6,C   7,O   8)          117.67 -0.000125    0.10    117.77   
    56. A(C   7,O   8,H  17)          109.63 -0.002789    0.63    110.26   
    57. A(C  10,C   9,H  18)          119.71  0.001459   -0.32    119.39   
    58. A(C   7,C   9,H  18)          121.78  0.000743   -0.15    121.64   
    59. A(C   7,C   9,C  10)          118.51 -0.002202    0.47    118.98   
    60. A(C   4,C  10,O  11)          121.41 -0.002116    0.36    121.77   
    61. A(C   4,C  10,C   9)          121.63  0.002703   -0.44    121.18   
    62. A(C   9,C  10,O  11)          116.96 -0.000587    0.09    117.04   
    63. A(C  10,O  11,C  12)          122.09 -0.003543    0.58    122.67   
    64. A(O  11,C  12,O  13)          119.39  0.004230   -0.82    118.57   
    65. A(C   2,C  12,O  13)          123.69 -0.005973    1.16    124.85   
    66. A(C   2,C  12,O  11)          116.91  0.001744   -0.34    116.58   
    67. A(C   5,O  19,C   6)           15.07  0.000518   -0.05     15.02   
    68. A(C   6,O  19,H  21)          135.44  0.001307   -0.48    134.95   
    69. A(C   6,O  19,H  20)          119.48  0.000718   -0.50    118.98   
    70. A(C   5,O  19,H  21)          120.90  0.000800   -0.41    120.49   
    71. A(C   5,O  19,H  20)          133.04  0.001190   -0.50    132.54   
    72. A(H  20,O  19,H  21)          104.84 -0.002001    1.03    105.87   
    73. D(C   4,C   3,C   2,C   1)    179.99  0.000006   -0.01    179.98   
    74. D(H  14,C   3,C   2,C  12)   -179.98  0.000002    0.01   -179.97   
    75. D(C   4,C   3,C   2,C  12)     -0.01  0.000010   -0.01     -0.01   
    76. D(H  14,C   3,C   2,C   1)      0.02 -0.000001    0.01      0.03   
    77. D(C   5,C   4,C   3,C   2)   -179.99  0.000021    0.01   -179.97   
    78. D(C  10,C   4,C   3,H  14)    179.97 -0.000009   -0.01    179.96   
    79. D(C  10,C   4,C   3,C   2)      0.00 -0.000017    0.00      0.01   
    80. D(C   5,C   4,C   3,H  14)     -0.01  0.000029   -0.01     -0.02   
    81. D(O  19,C   5,C   4,C   3)     43.54  0.000370   -0.37     43.17   
    82. D(C   6,C   5,C   4,C  10)      0.01  0.000101    0.01      0.02   
    83. D(H  15,C   5,C   4,C  10)   -179.89 -0.000216    0.12   -179.77   
    84. D(C   6,C   5,C   4,C   3)   -180.00  0.000063   -0.00   -180.00   
    85. D(H  15,C   5,C   4,C   3)      0.10 -0.000255    0.11      0.21   
    86. D(O  19,C   5,C   4,C  10)   -136.45  0.000409   -0.36   -136.81   
    87. D(C   7,C   6,C   5,C   4)      0.01 -0.000114   -0.00      0.01   
    88. D(O  19,C   6,C   5,H  15)     24.94 -0.000507   -0.09     24.85   
    89. D(O  19,C   6,C   5,C   4)   -154.96 -0.000823    0.02   -154.95   
    90. D(H  16,C   6,C   5,O  19)    -24.95  0.000445    0.09    -24.86   
    91. D(H  16,C   6,C   5,H  15)     -0.01 -0.000062   -0.00     -0.01   
    92. D(H  16,C   6,C   5,C   4)   -179.91 -0.000378    0.11   -179.81   
    93. D(C   7,C   6,C   5,O  19)    154.98  0.000709   -0.02    154.96   
    94. D(C   7,C   6,C   5,H  15)    179.92  0.000201   -0.11    179.81   
    95. D(C   9,C   7,C   6,O  19)    118.58 -0.000052    0.10    118.67   
    96. D(C   9,C   7,C   6,H  16)    179.90  0.000300   -0.11    179.79   
    97. D(C   9,C   7,C   6,C   5)     -0.03  0.000040    0.00     -0.02   
    98. D(O   8,C   7,C   6,O  19)    -61.43 -0.000096    0.10    -61.34   
    99. D(O   8,C   7,C   6,H  16)     -0.11  0.000256   -0.11     -0.22   
   100. D(O   8,C   7,C   6,C   5)    179.96 -0.000004    0.00    179.96   
   101. D(H  17,O   8,C   7,C   6)    179.98  0.000035   -0.03    179.95   
   102. D(H  17,O   8,C   7,C   9)     -0.03 -0.000010   -0.03     -0.06   
   103. D(C  10,C   9,C   7,C   6)      0.01  0.000046   -0.01      0.01   
   104. D(H  18,C   9,C   7,O   8)      0.02  0.000026    0.02      0.03   
   105. D(H  18,C   9,C   7,C   6)   -179.99 -0.000020    0.01   -179.98   
   106. D(C  10,C   9,C   7,O   8)   -179.98  0.000092   -0.00   -179.98   
   107. D(O  11,C  10,C   9,H  18)     -0.00  0.000016   -0.01     -0.01   
   108. D(O  11,C  10,C   9,C   7)    179.99 -0.000049    0.01    180.00   
   109. D(C   4,C  10,C   9,H  18)   -179.98  0.000007   -0.01   -179.99   
   110. D(C   4,C  10,C   9,C   7)      0.02 -0.000057    0.01      0.02   
   111. D(O  11,C  10,C   4,C   5)    180.00 -0.000025   -0.01    179.99   
   112. D(O  11,C  10,C   4,C   3)      0.01  0.000013   -0.00      0.01   
   113. D(C   9,C  10,C   4,C   5)     -0.03 -0.000015   -0.01     -0.04   
   114. D(C   9,C  10,C   4,C   3)    179.98  0.000022   -0.00    179.98   
   115. D(C  12,O  11,C  10,C   9)   -179.99 -0.000010    0.00   -179.99   
   116. D(C  12,O  11,C  10,C   4)     -0.02 -0.000000    0.00     -0.01   
   117. D(O  13,C  12,O  11,C  10)   -180.00 -0.000003    0.00   -179.99   
   118. D(C   2,C  12,O  11,C  10)      0.01 -0.000006   -0.00      0.01   
   119. D(O  13,C  12,C   2,C   3)   -179.99 -0.000003   -0.00   -179.99   
   120. D(O  13,C  12,C   2,C   1)      0.02  0.000001   -0.00      0.01   
   121. D(O  11,C  12,C   2,C   3)      0.00  0.000001    0.01      0.01   
   122. D(O  11,C  12,C   2,C   1)   -179.99  0.000005    0.01   -179.99   
   123. D(H  21,O  19,C   6,C   5)    -17.02 -0.000005   -0.42    -17.44   
   124. D(H  20,O  19,C   6,H  16)    -51.62  0.000106    0.61    -51.01   
   125. D(H  20,O  19,C   6,C   7)     28.03  0.000606    0.17     28.20   
   126. D(C   6,O  19,C   5,H  15)   -143.43  0.000165   -0.37   -143.80   
   127. D(C   6,O  19,C   5,C   4)    143.40 -0.000779    0.44    143.84   
   128. D(H  21,O  19,C   5,H  15)     22.73  0.000370   -0.77     21.95   
   129. D(H  21,O  19,C   5,C   6)    166.15  0.000205   -0.40    165.75   
   130. D(H  20,O  19,C   6,C   5)    156.36  0.000195    0.29    156.65   
   131. D(H  21,O  19,C   5,C   4)    -50.45 -0.000574    0.04    -50.40   
   132. D(H  20,O  19,C   5,H  15)   -171.95  0.000024    0.09   -171.86   
   133. D(H  20,O  19,C   5,C   6)    -28.53 -0.000141    0.47    -28.06   
   134. D(H  21,O  19,C   6,C   7)   -145.34  0.000406   -0.55   -145.89   
   135. D(H  20,O  19,C   5,C   4)    114.87 -0.000920    0.91    115.78   
   136. D(C   5,O  19,C   6,H  16)    152.02 -0.000089    0.31    152.33   
   137. D(C   5,O  19,C   6,C   7)   -128.33  0.000410   -0.12   -128.45   
   138. D(H  21,O  19,C   6,H  16)    135.00 -0.000094   -0.11    134.89   
    ----------------------------------------------------------------------------

         *************************************************************
[...]
    77. D(C   5,C   4,C   3,C   2)   -179.98  0.000001   -0.00   -179.98   
    78. D(C  10,C   4,C   3,H  14)    179.93 -0.000001   -0.00    179.93   
    79. D(C  10,C   4,C   3,C   2)     -0.01 -0.000001    0.00     -0.01   
    80. D(C   5,C   4,C   3,H  14)     -0.04  0.000002   -0.00     -0.04   
    81. D(O  19,C   5,C   4,C   3)     39.80  0.000050   -0.01     39.79   
    82. D(C   6,C   5,C   4,C  10)     -0.10  0.000006   -0.01     -0.11   
    83. D(H  15,C   5,C   4,C  10)   -179.82  0.000001   -0.00   -179.82   
    84. D(C   6,C   5,C   4,C   3)    179.87  0.000004   -0.01    179.86   
    85. D(H  15,C   5,C   4,C   3)      0.15 -0.000002   -0.00      0.15   
    86. D(O  19,C   5,C   4,C  10)   -140.17  0.000052   -0.02   -140.18   
    87. D(C   7,C   6,C   5,C   4)      0.10 -0.000007    0.01      0.11   
    88. D(O  19,C   6,C   5,H  15)     23.18  0.000017   -0.01     23.17   
    89. D(O  19,C   6,C   5,C   4)   -156.54  0.000011   -0.00   -156.54   
    90. D(H  16,C   6,C   5,O  19)    -23.24 -0.000017    0.01    -23.23   
    91. D(H  16,C   6,C   5,H  15)     -0.06  0.000000    0.00     -0.06   
    92. D(H  16,C   6,C   5,C   4)   -179.78 -0.000006    0.01   -179.77   
    93. D(C   7,C   6,C   5,O  19)    156.64 -0.000019    0.01    156.65   
    94. D(C   7,C   6,C   5,H  15)    179.82 -0.000002    0.00    179.82   
    95. D(C   9,C   7,C   6,O  19)    116.28  0.000024    0.02    116.30   
    96. D(C   9,C   7,C   6,H  16)    179.86  0.000002   -0.00    179.85   
    97. D(C   9,C   7,C   6,C   5)     -0.03  0.000004   -0.00     -0.03   
    98. D(O   8,C   7,C   6,O  19)    -63.73  0.000023    0.02    -63.71   
    99. D(O   8,C   7,C   6,H  16)     -0.15  0.000001   -0.00     -0.15   
   100. D(O   8,C   7,C   6,C   5)    179.97  0.000003   -0.00    179.97   
   101. D(H  17,O   8,C   7,C   6)    179.94  0.000001   -0.00    179.94   
   102. D(H  17,O   8,C   7,C   9)     -0.07 -0.000000   -0.00     -0.07   
   103. D(C  10,C   9,C   7,C   6)     -0.05  0.000001   -0.00     -0.05   
   104. D(H  18,C   9,C   7,O   8)      0.02  0.000001   -0.00      0.02   
   105. D(H  18,C   9,C   7,C   6)   -179.99 -0.000001   -0.00   -179.99   
   106. D(C  10,C   9,C   7,O   8)    179.95  0.000002   -0.00    179.95   
   107. D(O  11,C  10,C   9,H  18)     -0.00 -0.000001    0.00     -0.00   
   108. D(O  11,C  10,C   9,C   7)   -179.95 -0.000002    0.00   -179.94   
   109. D(C   4,C  10,C   9,H  18)    179.99 -0.000001    0.00    179.99   
   110. D(C   4,C  10,C   9,C   7)      0.05 -0.000002    0.00      0.05   
   111. D(O  11,C  10,C   4,C   5)   -179.98 -0.000001    0.00   -179.98   
   112. D(O  11,C  10,C   4,C   3)      0.04  0.000001    0.00      0.05   
   113. D(C   9,C  10,C   4,C   5)      0.02 -0.000001    0.01      0.03   
   114. D(C   9,C  10,C   4,C   3)   -179.95  0.000001    0.00   -179.95   
   115. D(C  12,O  11,C  10,C   9)    179.96 -0.000000   -0.00    179.95   
   116. D(C  12,O  11,C  10,C   4)     -0.04 -0.000000   -0.00     -0.04   
   117. D(O  13,C  12,O  11,C  10)    180.00 -0.000001    0.00    180.00   
   118. D(C   2,C  12,O  11,C  10)     -0.00  0.000000    0.00     -0.00   
   119. D(O  13,C  12,C   2,C   3)   -179.96  0.000001    0.00   -179.96   
   120. D(O  13,C  12,C   2,C   1)      0.05  0.000001    0.00      0.05   
   121. D(O  11,C  12,C   2,C   3)      0.04 -0.000001    0.00      0.04   
   122. D(O  11,C  12,C   2,C   1)   -179.96 -0.000000    0.00   -179.96   
   123. D(H  21,O  19,C   6,C   5)    -19.66  0.000018   -0.03    -19.69   
   124. D(H  20,O  19,C   6,H  16)    -48.68 -0.000002   -0.03    -48.71   
   125. D(H  20,O  19,C   6,C   7)     30.30 -0.000007   -0.05     30.25   
   126. D(C   6,O  19,C   5,H  15)   -145.67  0.000005   -0.01   -145.68   
   127. D(C   6,O  19,C   5,C   4)    146.52 -0.000039    0.01    146.52   
   128. D(H  21,O  19,C   5,H  15)     18.68  0.000014   -0.03     18.65   
   129. D(H  21,O  19,C   5,C   6)    164.35  0.000009   -0.02    164.33   
   130. D(H  20,O  19,C   6,C   5)    156.15  0.000015   -0.04    156.11   
   131. D(H  21,O  19,C   5,C   4)    -49.13 -0.000030   -0.02    -49.15   
   132. D(H  20,O  19,C   5,H  15)   -174.59  0.000012   -0.04   -174.63   
   133. D(H  20,O  19,C   5,C   6)    -28.92  0.000007   -0.03    -28.95   
   134. D(H  21,O  19,C   6,C   7)   -145.50 -0.000004   -0.05   -145.55   
   135. D(H  20,O  19,C   5,C   4)    117.60 -0.000032   -0.03    117.57   
   136. D(C   5,O  19,C   6,H  16)    155.17 -0.000017    0.00    155.18   
   137. D(C   5,O  19,C   6,C   7)   -125.84 -0.000022   -0.02   -125.86   
   138. D(H  21,O  19,C   6,H  16)    135.51  0.000001   -0.03    135.49   
    ----------------------------------------------------------------------------
                 *******************************************************
                 *** FINAL ENERGY EVALUATION AT THE STATIONARY POINT ***
                 ***               (AFTER   15 CYCLES)               ***
                 *******************************************************
---------------------------------
CARTESIAN COORDINATES (ANGSTROEM)
---------------------------------
  N     4.526400   -0.196336    2.059585
  C     3.465182   -0.031986    1.659978
  C     2.160839    0.131867    1.144686
  C     1.615676   -0.788336    0.303040
  C     0.300979   -0.604779   -0.203647
  C    -0.332975   -1.505137   -1.074321
  C    -1.604376   -1.267631   -1.522732
  C    -2.292417   -0.112646   -1.116453
  O    -3.539095    0.072643   -1.587140
  C    -1.685467    0.792384   -0.257770
  C    -0.395806    0.550113    0.198434
  O     0.153626    1.457209    1.032838
  C     1.416882    1.330539    1.551011
  O     1.817502    2.191688    2.285749
  H     2.175624   -1.666622    0.012888
  H     0.195301   -2.393184   -1.383312
  H    -2.101621   -1.953741   -2.188087
  H    -3.917013    0.893235   -1.244949
  H    -2.194401    1.687300    0.068613
  O    -0.859055   -5.978905   -1.844117
  H    -1.637058   -6.540220   -1.835337
  H    -0.095462   -6.559277   -1.871431

----------------------------
CARTESIAN COORDINATES (A.U.)
----------------------------
  NO LB    ZA    FRAG    MASS        X           Y           Z
   0 N   7.0000    0    14.007    8.553656   -0.371022    3.892052
   1 C   6.0000    0    12.011    6.548245   -0.060446    3.136904
   2 C   6.0000    0    12.011    4.083393    0.249192    2.163142
   3 C   6.0000    0    12.011    3.053184   -1.489740    0.572663
   4 C   6.0000    0    12.011    0.568768   -1.142867   -0.384837
   5 C   6.0000    0    12.011   -0.629232   -2.844297   -2.030172
   6 C   6.0000    0    12.011   -3.031832   -2.395476   -2.877547
   7 C   6.0000    0    12.011   -4.332040   -0.212870   -2.109791
   8 O   8.0000    0    15.999   -6.687920    0.137275   -2.999260
   9 C   6.0000    0    12.011   -3.185070    1.497389   -0.487115
  10 C   6.0000    0    12.011   -0.747964    1.039564    0.374986
  11 O   8.0000    0    15.999    0.290312    2.753725    1.951781
  12 C   6.0000    0    12.011    2.677519    2.514354    2.930986
  13 O   8.0000    0    15.999    3.434582    4.141690    4.319440
  14 H   1.0000    0     1.008    4.111333   -3.149459    0.024356
  15 H   1.0000    0     1.008    0.369065   -4.522462   -2.614080
  16 H   1.0000    0     1.008   -3.971489   -3.692036   -4.134884
  17 H   1.0000    0     1.008   -7.402081    1.687969   -2.352613
  18 H   1.0000    0     1.008   -4.146817    3.188534    0.129661
  19 O   8.0000    0    15.999   -1.623379  -11.298494   -3.484875
  20 H   1.0000    0     1.008   -3.093592  -12.359224   -3.468285
  21 H   1.0000    0     1.008   -0.180398  -12.395237   -3.536493

      -----------------------------------------------------------      
     |                   =====================                   |     
     |                           x T B                           |     
     |                   =====================                   |     
     |                         S. Grimme                         |     
     |          Mulliken Center for Theoretical Chemistry        |     
     |                    University of Bonn                     |     
      -----------------------------------------------------------      

   * xtb version 6.6.1 (8d0f1dd) compiled by 'stahn@M-Bot' on 2023-08-01

   xtb is free software: you can redistribute it and/or modify it under
   the terms of the GNU Lesser General Public License as published by
   the Free Software Foundation, either version 3 of the License, or
   (at your option) any later version.
   
   xtb is distributed in the hope that it will be useful,
   but WITHOUT ANY WARRANTY; without even the implied warranty of
   MERCHANTABILITY or FITNESS FOR A PARTICULAR PURPOSE.  See the
   GNU Lesser General Public License for more details.
   
   Cite this work as:
   * C. Bannwarth, E. Caldeweyher, S. Ehlert, A. Hansen, P. Pracht,
     J. Seibert, S. Spicher, S. Grimme, WIREs Comput. Mol. Sci., 2020, 11,
     e01493. DOI: 10.1002/wcms.1493
   
   for GFN2-xTB:
   * C. Bannwarth, S. Ehlert and S. Grimme., J. Chem. Theory Comput., 2019,
     15, 1652-1671. DOI: 10.1021/acs.jctc.8b01176
   for GFN1-xTB:
   * S. Grimme, C. Bannwarth, P. Shushkov, J. Chem. Theory Comput., 2017,
     13, 1989-2009. DOI: 10.1021/acs.jctc.7b00118
   for GFN0-xTB:
   * P. Pracht, E. Caldeweyher, S. Ehlert, S. Grimme, ChemRxiv, 2019, preprint.
     DOI: 10.26434/chemrxiv.8326202.v1
   for GFN-FF:
   * S. Spicher and S. Grimme, Angew. Chem. Int. Ed., 2020, 59, 15665-15673.
     DOI: 10.1002/anie.202004239
   
   for ALPB and GBSA implicit solvation:
   * S. Ehlert, M. Stahn, S. Spicher, S. Grimme, J. Chem. Theory Comput.,
     2021, 17, 4250-4261. DOI: 10.1021/acs.jctc.1c00471
   
   for DFT-D4:
   * E. Caldeweyher, C. Bannwarth and S. Grimme, J. Chem. Phys., 2017,
     147, 034112. DOI: 10.1063/1.4993215
   * E. Caldeweyher, S. Ehlert, A. Hansen, H. Neugebauer, S. Spicher,
     C. Bannwarth and S. Grimme, J. Chem. Phys., 2019, 150, 154122.
     DOI: 10.1063/1.5090222
   * E. Caldeweyher, J.-M. Mewes, S. Ehlert and S. Grimme, Phys. Chem. Chem. Phys.
     2020, 22, 8499-8512. DOI: 10.1039/D0CP00502A
   
   for sTDA-xTB:
   * S. Grimme and C. Bannwarth, J. Chem. Phys., 2016, 145, 054103.
     DOI: 10.1063/1.4959605
   
   in the mass-spec context:
   * V. Asgeirsson, C. Bauer and S. Grimme, Chem. Sci., 2017, 8, 4879.
     DOI: 10.1039/c7sc00601b
   * J. Koopman and S. Grimme, ACS Omega 2019, 4, 12, 15120-15133.
     DOI: 10.1021/acsomega.9b02011
   
   for metadynamics refer to:
   * S. Grimme, J. Chem. Theory Comput., 2019, 155, 2847-2862
     DOI: 10.1021/acs.jctc.9b00143
   
   for SPH calculations refer to:
   * S. Spicher and S. Grimme, J. Chem. Theory Comput., 2021, 17, 1701-1714
     DOI: 10.1021/acs.jctc.0c01306
   
   with help from (in alphabetical order)
   P. Atkinson, C. Bannwarth, F. Bohle, G. Brandenburg, E. Caldeweyher
   M. Checinski, S. Dohm, S. Ehlert, S. Ehrlich, I. Gerasimov, C. Hölzer
   A. Katbashev, J. Koopman, C. Lavigne, S. Lehtola, F. März, M. Müller,
   F. Musil, H. Neugebauer, J. Pisarek, C. Plett, P. Pracht, F. Pultar,
   J. Seibert, P. Shushkov, S. Spicher, M. Stahn, M. Steiner, T. Strunk,
   J. Stückrath, T. Rose, and J. Unsleber
   
 * started run on 2025/01/14 at 20:47:31.536     

           -------------------------------------------------
          |                Calculation Setup                |
           -------------------------------------------------

          program call               : /home/jang/cal_tmp/10_orca/orca_5_0_4_linux_x86-64_shared_openmpi411/otool_xtb /home/jang/cal_tmp/10_orca/Gen_chromophore/Gen_molecular_pairs_cal/mol_1_2.xyz/input_XTB.xyz --grad -c 0 -u 0 -P 4 --namespace /home/jang/cal_tmp/10_orca/Gen_chromophore/Gen_molecular_pairs_cal/mol_1_2.xyz/input --input /home/jang/cal_tmp/10_orca/Gen_chromophore/Gen_molecular_pairs_cal/mol_1_2.xyz/input_XTB.input.tmp --acc 1.000000
          hostname                   : node02
          calculation namespace      : /home/jang/cal_tmp/10_orca/Gen_chromophore/Gen_molecular_pairs_cal/mol_1_2.xyz/input
          coordinate file            : /home/jang/cal_tmp/10_orca/Gen_chromophore/Gen_molecular_pairs_cal/mol_1_2.xyz/input_XTB.xyz
          omp threads                :                     4

   ID    Z sym.   atoms
    1    7 N      1
    2    6 C      2-8, 10, 11, 13
    3    8 O      9, 12, 14, 20
    4    1 H      15-19, 21, 22

molecular fragmentation (1/2 indicates fragments):
1111111111111111111222
# atoms in fragment 1/2:    19     3
 fragment masses (1/2) :      187.15       18.02
CMA distance (Bohr)    :  12.672
constraining FC (au)   :  0.0500

           -------------------------------------------------
          |                 G F N 2 - x T B                 |
           -------------------------------------------------

        Reference                      10.1021/acs.jctc.8b01176
      * Hamiltonian:
        H0-scaling (s, p, d)           1.850000    2.230000    2.230000
        zeta-weighting                 0.500000
      * Dispersion:
        s8                             2.700000
        a1                             0.520000
        a2                             5.000000
        s9                             5.000000
      * Repulsion:
        kExp                           1.500000    1.000000
        rExp                           1.000000
      * Coulomb:
        alpha                          2.000000
        third order                    shell-resolved
        anisotropic                    true
        a3                             3.000000
        a5                             4.000000
        cn-shift                       1.200000
        cn-exp                         4.000000
        max-rad                        5.000000

q/qsh data taken from xtbrestart
CAMM data taken from xtbrestart

          ...................................................
          :                      SETUP                      :
          :.................................................:
          :  # basis functions                  67          :
          :  # atomic orbitals                  67          :
          :  # shells                           37          :
          :  # electrons                        76          :
          :  max. iterations                   250          :
          :  Hamiltonian                  GFN2-xTB          :
          :  restarted?                       true          :
          :  GBSA solvation                  false          :
          :  PC potential                    false          :
          :  electronic temp.          300.0000000     K    :
          :  accuracy                    1.0000000          :
          :  -> integral cutoff          0.2500000E+02      :
          :  -> integral neglect         0.1000000E-07      :
          :  -> SCF convergence          0.1000000E-05 Eh   :
          :  -> wf. convergence          0.1000000E-03 e    :
          :  Broyden damping             0.4000000          :
          ...................................................

 iter      E             dE          RMSdq      gap      omega  full diag
   1    -44.7342298 -0.447342E+02  0.278E-03    2.63       0.0  T
   2    -44.7342298 -0.506619E-08  0.159E-03    2.63      13.4  T
   3    -44.7342298  0.749947E-08  0.680E-04    2.63      31.4  T
   4    -44.7342298 -0.941768E-08  0.155E-04    2.63     137.8  T

   *** convergence criteria satisfied after 4 iterations ***

         #    Occupation            Energy/Eh            Energy/eV
      -------------------------------------------------------------
         1        2.0000           -0.7687682             -20.9192
       ...           ...                  ...                  ...
        32        2.0000           -0.4621566             -12.5759
        33        2.0000           -0.4573791             -12.4459
        34        2.0000           -0.4564603             -12.4209
        35        2.0000           -0.4343810             -11.8201
        36        2.0000           -0.4326689             -11.7735
        37        2.0000           -0.4210634             -11.4577
        38        2.0000           -0.4109683             -11.1830 (HOMO)
        39                         -0.3143657              -8.5543 (LUMO)
        40                         -0.2639565              -7.1826
        41                         -0.2393711              -6.5136
        42                         -0.2189044              -5.9567
        43                         -0.2133785              -5.8063
       ...                                ...                  ...
        67                          1.1682332              31.7892
      -------------------------------------------------------------
                  HL-Gap            0.0966026 Eh            2.6287 eV
             Fermi-level           -0.3626670 Eh           -9.8687 eV

 SCC (total)                   0 d,  0 h,  0 min,  0.042 sec
 SCC setup                      ...        0 min,  0.000 sec (  0.914%)
 Dispersion                     ...        0 min,  0.000 sec (  0.928%)
 classical contributions        ...        0 min,  0.000 sec (  0.221%)
 integral evaluation            ...        0 min,  0.002 sec (  5.784%)
 iterations                     ...        0 min,  0.034 sec ( 81.467%)
 molecular gradient             ...        0 min,  0.004 sec (  9.980%)
 printout                       ...        0 min,  0.000 sec (  0.517%)

         :::::::::::::::::::::::::::::::::::::::::::::::::::::
         ::                     SUMMARY                     ::
         :::::::::::::::::::::::::::::::::::::::::::::::::::::
         :: total energy             -44.121428695825 Eh    ::
         :: gradient norm              0.000664371929 Eh/a0 ::
         :: HOMO-LUMO gap              2.628691091396 eV    ::
         ::.................................................::
         :: SCC energy               -44.734229838125 Eh    ::
         :: -> isotropic ES            0.099214874556 Eh    ::
         :: -> anisotropic ES          0.002918670175 Eh    ::
         :: -> anisotropic XC          0.020044426364 Eh    ::
         :: -> dispersion             -0.019774731982 Eh    ::
         :: repulsion energy           0.612853792055 Eh    ::
         :: add. restraining           0.000000000000 Eh    ::
         :: total charge               0.000000000000 e     ::
         :::::::::::::::::::::::::::::::::::::::::::::::::::::


Property printout bound to 'properties.out'

           -------------------------------------------------
          | TOTAL ENERGY              -44.121428695825 Eh   |
          | GRADIENT NORM               0.000664371929 Eh/α |
          | HOMO-LUMO GAP               2.628691091396 eV   |
           -------------------------------------------------

------------------------------------------------------------------------
 * finished run on 2025/01/14 at 20:47:31.628     
------------------------------------------------------------------------
 total:
 * wall-time:     0 d,  0 h,  0 min,  0.090 sec
 *  cpu-time:     0 d,  0 h,  0 min,  0.273 sec
 * ratio c/w:     3.032 speedup
 SCF:
 * wall-time:     0 d,  0 h,  0 min,  0.042 sec
 *  cpu-time:     0 d,  0 h,  0 min,  0.149 sec
 * ratio c/w:     3.567 speedup


-------------------------   --------------------
FINAL SINGLE POINT ENERGY       -44.121428695830
-------------------------   --------------------

                                *** OPTIMIZATION RUN DONE ***

Timings for individual modules:

Sum of individual times         ...       47.422 sec (=   0.790 min)
Geometry relaxation             ...        9.486 sec (=   0.158 min)  20.0 %
XTB module                      ...       37.936 sec (=   0.632 min)  80.0 %
                             ****ORCA TERMINATED NORMALLY****
TOTAL RUN TIME: 0 days 0 hours 2 minutes 37 seconds 249 msec
