
                                 *****************
                                 * O   R   C   A *
                                 *****************

                                            #,                                       
                                            ###                                      
                                            ####                                     
                                            #####                                    
                                            ######                                   
                                           ########,                                 
                                     ,,################,,,,,                         
                               ,,#################################,,                 
                          ,,##########################################,,             
                       ,#########################################, ''#####,          
                    ,#############################################,,   '####,        
                  ,##################################################,,,,####,       
                ,###########''''           ''''###############################       
              ,#####''   ,,,,##########,,,,          '''####'''          '####       
            ,##' ,,,,###########################,,,                        '##       
           ' ,,###''''                  '''############,,,                           
         ,,##''                                '''############,,,,        ,,,,,,###''
      ,#''                                            '''#######################'''  
     '                                                          ''''####''''         
             ,#######,   #######,   ,#######,      ##                                
            ,#'     '#,  ##    ##  ,#'     '#,    #''#        ######   ,####,        
            ##       ##  ##   ,#'  ##            #'  '#       #        #'  '#        
            ##       ##  #######   ##           ,######,      #####,   #    #        
            '#,     ,#'  ##    ##  '#,     ,#' ,#      #,         ##   #,  ,#        
             '#######'   ##     ##  '#######'  #'      '#     #####' # '####'        



                  #######################################################
                  #                        -***-                        #
                  #          Department of theory and spectroscopy      #
                  #    Directorship and core code : Frank Neese         #
                  #        Max Planck Institute fuer Kohlenforschung    #
                  #                Kaiser Wilhelm Platz 1               #
                  #                 D-45470 Muelheim/Ruhr               #
                  #                      Germany                        #
                  #                                                     #
                  #                  All rights reserved                #
                  #                        -***-                        #
                  #######################################################


                         Program Version 5.0.4 -  RELEASE  -


 With contributions from (in alphabetic order):
   Daniel Aravena         : Magnetic Suceptibility
   Michael Atanasov       : Ab Initio Ligand Field Theory (pilot matlab implementation)
   Alexander A. Auer      : GIAO ZORA, VPT2 properties, NMR spectrum
   Ute Becker             : Parallelization
   Giovanni Bistoni       : ED, misc. LED, open-shell LED, HFLD
   Martin Brehm           : Molecular dynamics
   Dmytro Bykov           : SCF Hessian
   Vijay G. Chilkuri      : MRCI spin determinant printing, contributions to CSF-ICE
   Dipayan Datta          : RHF DLPNO-CCSD density
   Achintya Kumar Dutta   : EOM-CC, STEOM-CC
   Dmitry Ganyushin       : Spin-Orbit,Spin-Spin,Magnetic field MRCI
   Miquel Garcia          : C-PCM and meta-GGA Hessian, CC/C-PCM, Gaussian charge scheme
   Yang Guo               : DLPNO-NEVPT2, F12-NEVPT2, CIM, IAO-localization
   Andreas Hansen         : Spin unrestricted coupled pair/coupled cluster methods
   Benjamin Helmich-Paris : MC-RPA, TRAH-SCF, COSX integrals
   Lee Huntington         : MR-EOM, pCC
   Robert Izsak           : Overlap fitted RIJCOSX, COSX-SCS-MP3, EOM
   Marcus Kettner         : VPT2
   Christian Kollmar      : KDIIS, OOCD, Brueckner-CCSD(T), CCSD density, CASPT2, CASPT2-K
   Simone Kossmann        : Meta GGA functionals, TD-DFT gradient, OOMP2, MP2 Hessian
   Martin Krupicka        : Initial AUTO-CI
   Lucas Lang             : DCDCAS
   Marvin Lechner         : AUTO-CI (C++ implementation), FIC-MRCC
   Dagmar Lenk            : GEPOL surface, SMD
   Dimitrios Liakos       : Extrapolation schemes; Compound Job, initial MDCI parallelization
   Dimitrios Manganas     : Further ROCIS development; embedding schemes
   Dimitrios Pantazis     : SARC Basis sets
   Anastasios Papadopoulos: AUTO-CI, single reference methods and gradients
   Taras Petrenko         : DFT Hessian,TD-DFT gradient, ASA, ECA, R-Raman, ABS, FL, XAS/XES, NRVS
   Peter Pinski           : DLPNO-MP2, DLPNO-MP2 Gradient
   Christoph Reimann      : Effective Core Potentials
   Marius Retegan         : Local ZFS, SOC
   Christoph Riplinger    : Optimizer, TS searches, QM/MM, DLPNO-CCSD(T), (RO)-DLPNO pert. Triples
   Tobias Risthaus        : Range-separated hybrids, TD-DFT gradient, RPA, STAB
   Michael Roemelt        : Original ROCIS implementation
   Masaaki Saitow         : Open-shell DLPNO-CCSD energy and density
   Barbara Sandhoefer     : DKH picture change effects
   Avijit Sen             : IP-ROCIS
   Kantharuban Sivalingam : CASSCF convergence, NEVPT2, FIC-MRCI
   Bernardo de Souza      : ESD, SOC TD-DFT
   Georgi Stoychev        : AutoAux, RI-MP2 NMR, DLPNO-MP2 response
   Willem Van den Heuvel  : Paramagnetic NMR
   Boris Wezisla          : Elementary symmetry handling
   Frank Wennmohs         : Technical directorship


 We gratefully acknowledge several colleagues who have allowed us to
 interface, adapt or use parts of their codes:
   Stefan Grimme, W. Hujo, H. Kruse, P. Pracht,  : VdW corrections, initial TS optimization,
                  C. Bannwarth, S. Ehlert          DFT functionals, gCP, sTDA/sTD-DF
   Ed Valeev, F. Pavosevic, A. Kumar             : LibInt (2-el integral package), F12 methods
   Garnet Chan, S. Sharma, J. Yang, R. Olivares  : DMRG
   Ulf Ekstrom                                   : XCFun DFT Library
   Mihaly Kallay                                 : mrcc  (arbitrary order and MRCC methods)
   Jiri Pittner, Ondrej Demel                    : Mk-CCSD
   Frank Weinhold                                : gennbo (NPA and NBO analysis)
   Christopher J. Cramer and Donald G. Truhlar   : smd solvation model
   Lars Goerigk                                  : TD-DFT with DH, B97 family of functionals
   V. Asgeirsson, H. Jonsson                     : NEB implementation
   FAccTs GmbH                                   : IRC, NEB, NEB-TS, DLPNO-Multilevel, CI-OPT
                                                   MM, QMMM, 2- and 3-layer-ONIOM, Crystal-QMMM,
                                                   LR-CPCM, SF, NACMEs, symmetry and pop. for TD-DFT,
                                                   nearIR, NL-DFT gradient (VV10), updates on ESD,
                                                   ML-optimized integration grids
   S Lehtola, MJT Oliveira, MAL Marques          : LibXC Library
   Liviu Ungur et al                             : ANISO software


 Your calculation uses the libint2 library for the computation of 2-el integrals
 For citations please refer to: http://libint.valeyev.net

 Your ORCA version has been built with support for libXC version: 5.1.0
 For citations please refer to: https://tddft.org/programs/libxc/

 This ORCA versions uses:
   CBLAS   interface :  Fast vector & matrix operations
   LAPACKE interface :  Fast linear algebra routines
   SCALAPACK package :  Parallel linear algebra routines
   Shared memory     :  Shared parallel matrices
   BLAS/LAPACK       :  OpenBLAS 0.3.15  USE64BITINT DYNAMIC_ARCH NO_AFFINITY SkylakeX SINGLE_THREADED
        Core in use  :  SkylakeX
   Copyright (c) 2011-2014, The OpenBLAS Project




***************************************
The coordinates will be read from file: mol.xyz
***************************************


Your calculation utilizes the atom-pairwise dispersion correction
with the Becke-Johnson damping scheme (D3BJ)
Cite in your paper:
S.Grimme, S.Ehrlich, L.Goerigk, J Comput Chem, (2011), 32, 1456–1465 
S.Grimme, J.Antony, S.Ehrlich and H.Krieg, J.Chem.Phys., 132, (2010), 154104 
   

Your calculation utilizes the semiempirical GFN2-xTB method
Please cite in your paper:
C. Bannwarth, Ehlert S., S. Grimme,  J. Chem. Theory Comput., 15, (2019), 1652.
   

================================================================================

----- Orbital basis set information -----
Your calculation utilizes the basis: def2-SVP
   F. Weigend and R. Ahlrichs, Phys. Chem. Chem. Phys. 7, 3297 (2005).

----- AuxJ basis set information -----
Your calculation utilizes the auxiliary basis: def2/J
   F. Weigend, Phys. Chem. Chem. Phys. 8, 1057 (2006).

================================================================================
                                        WARNINGS
                       Please study these warnings very carefully!
================================================================================


WARNING: Geometry Optimization
  ===> : Switching off AutoStart
         For restart on a previous wavefunction, please use MOREAD

WARNING: Found dipole moment calculation with XTB calculation
  ===> : Switching off dipole moment calculation


WARNING: TRAH-SCF for XTB is not implemented!
  ===> : Turning TRAH off!

================================================================================
                                       INPUT FILE
================================================================================
NAME = /home/jang/cal_tmp/10_orca/Gen_chromophore/Gen_molecular_pairs_cal/mol_2_10.xyz/input.inp
|  1> ! B3LYP D3BJ def2-SVP TightSCF XTB Opt PAL8
|  2> 
|  3> %geom
|  4>   MaxIter 3000
|  5> end
|  6> 
|  7> * xyzfile 0 1 mol.xyz
|  8> 
|  9> %pal nprocs 4 # any number (positive integer)
| 10> end
| 11> 
| 12>                          ****END OF INPUT****
================================================================================

                       *****************************
                       * Geometry Optimization Run *
                       *****************************

Geometry optimization settings:
Update method            Update   .... BFGS
Choice of coordinates    CoordSys .... Z-matrix Internals
Initial Hessian          InHess   .... Almoef's Model

Convergence Tolerances:
Energy Change            TolE     ....  5.0000e-06 Eh
Max. Gradient            TolMAXG  ....  3.0000e-04 Eh/bohr
RMS Gradient             TolRMSG  ....  1.0000e-04 Eh/bohr
Max. Displacement        TolMAXD  ....  4.0000e-03 bohr
RMS Displacement         TolRMSD  ....  2.0000e-03 bohr
Strict Convergence                ....  False
------------------------------------------------------------------------------
                        ORCA OPTIMIZATION COORDINATE SETUP
------------------------------------------------------------------------------

The optimization will be done in new redundant internal coordinates
Making redundant internal coordinates   ...  (new redundants) done
Evaluating the initial hessian          ...  (Almloef) done
Evaluating the coordinates              ...  done
Calculating the B-matrix                .... done
Calculating the G-matrix                .... done
Diagonalizing the G-matrix              .... done
The first mode is                       ....  136
The number of degrees of freedom        ....   57

    -----------------------------------------------------------------
                    Redundant Internal Coordinates


    -----------------------------------------------------------------
         Definition                    Initial Value    Approx d2E/dq
    -----------------------------------------------------------------
      1. B(C   1,N   0)                  1.1617         1.294464   
      2. B(C   2,C   1)                  1.4203         0.558906   
      3. B(C   3,C   2)                  1.3407         0.748977   
      4. B(C   4,C   3)                  1.4517         0.498162   
      5. B(C   5,C   4)                  1.3886         0.628017   
      6. B(C   6,C   5)                  1.4030         0.595707   
      7. B(C   7,C   6)                  1.4095         0.581595   
      8. B(O   8,C   7)                  1.2731         0.859781   
      9. B(C   9,C   7)                  1.4064         0.588194   
     10. B(C  10,C   9)                  1.3965         0.610165   
     11. B(C  10,C   4)                  1.3862         0.633503   
     12. B(O  11,C  10)                  1.4084         0.522996   
     13. B(C  12,O  11)                  1.3886         0.562544   
     14. B(C  12,C   2)                  1.4794         0.449829   
     15. B(O  13,C  12)                  1.2282         1.014053   
     16. B(H  14,C   3)                  1.0854         0.366227   
     17. B(H  15,C   5)                  1.0846         0.367344   
     18. B(H  16,C   6)                  1.0904         0.359540   
     19. B(H  17,C   9)                  1.0885         0.362113   
     20. B(O  18,C  12)                  5.7311         0.000000   
     21. B(O  18,O  11)                  5.2165         0.000000   
     22. B(O  18,C  10)                  5.5465         0.000000   
     23. B(O  18,C   9)                  5.5286         0.000000   
     24. B(O  18,H  17)                  5.2390         0.000000   
     25. B(H  19,O  18)                  0.9690         0.503047   
     26. B(H  20,O  13)                  5.0846         0.000000   
     27. B(H  20,C  12)                  5.0603         0.000000   
     28. B(H  20,O  11)                  4.6823         0.000001   
     29. B(H  20,C  10)                  5.2321         0.000000   
     30. B(H  20,C   9)                  5.3918         0.000000   
     31. B(H  20,O  18)                  0.9690         0.503047   
     32. B(H  20,H  17)                  5.0902         0.000000   
     33. L(N   0,C   1,C   2,C   3, 2) 180.0001         0.483890   
     34. L(N   0,C   1,C   2,C   3, 1) 176.9664         0.483890   
     35. A(C   1,C   2,C   3)          120.2626         0.440789   
     36. A(C   1,C   2,C  12)          118.1964         0.402448   
     37. A(C   3,C   2,C  12)          121.5410         0.423919   
     38. A(C   4,C   3,H  14)          117.9411         0.341119   
     39. A(C   2,C   3,C   4)          119.9811         0.431746   
     40. A(C   2,C   3,H  14)          122.0778         0.365496   
     41. A(C   5,C   4,C  10)          118.4668         0.436763   
     42. A(C   3,C   4,C   5)          122.3290         0.418350   
     43. A(C   3,C   4,C  10)          119.2042         0.418999   
     44. A(C   6,C   5,H  15)          118.6348         0.351714   
     45. A(C   4,C   5,C   6)          119.6307         0.431954   
     46. A(C   4,C   5,H  15)          121.7345         0.354873   
     47. A(C   5,C   6,C   7)          123.4275         0.426045   
     48. A(C   5,C   6,H  16)          118.6857         0.350440   
     49. A(C   7,C   6,H  16)          117.8867         0.349025   
     50. A(O   8,C   7,C   9)          122.6345         0.453147   
     51. A(C   6,C   7,C   9)          114.9713         0.425078   
     52. A(C   6,C   7,O   8)          122.3942         0.452218   
     53. A(C  10,C   9,H  17)          119.4361         0.352287   
     54. A(C   7,C   9,H  17)          118.5678         0.350111   
     55. A(C   7,C   9,C  10)          121.9961         0.428746   
     56. A(H  17,C   9,O  18)           69.0546         0.097201   
     57. A(C  10,C   9,O  18)           83.4855         0.099671   
     58. A(C   7,C   9,O  18)          117.5501         0.099583   
     59. A(C   4,C  10,O  11)          120.7891         0.419908   
     60. A(C   4,C  10,C   9)          121.5076         0.434500   
     61. A(C   9,C  10,O  18)           82.0283         0.099513   
     62. A(C   4,C  10,O  18)          118.4056         0.099603   
     63. A(C   9,C  10,O  11)          117.7033         0.417108   
     64. A(O  11,C  10,O  18)           69.2513         0.099069   
     65. A(C  12,O  11,O  18)          104.8178         0.102026   
     66. A(C  10,O  11,O  18)           96.1244         0.101813   
     67. A(C  10,O  11,C  12)          121.3283         0.408478   
     68. A(O  11,C  12,O  18)           61.6359         0.097780   
     69. A(C   2,C  12,O  18)          116.3630         0.097416   
     70. A(O  11,C  12,O  13)          121.2293         0.460131   
     71. A(O  13,C  12,O  18)           91.6009         0.099033   
     72. A(C   2,C  12,O  13)          121.6144         0.444743   
     73. A(C   2,C  12,O  11)          117.1563         0.400326   
     74. A(H  19,O  18,H  20)          103.9780         0.318375   
     75. A(O  11,O  18,C  12)           13.5463         0.089352   
     76. A(C   9,O  18,C  12)           38.1758         0.089281   
     77. A(C  12,O  18,H  20)           42.5841         0.096379   
     78. A(C  12,O  18,H  19)          113.8696         0.096379   
     79. A(C  10,O  18,O  11)           14.6243         0.089411   
     80. A(C   9,O  18,O  11)           25.6063         0.089417   
     81. A(O  11,O  18,H  20)           51.9796         0.099947   
     82. A(O  11,O  18,H  19)          124.8439         0.099947   
     83. A(C   9,O  18,C  10)           14.4862         0.089327   
     84. A(C  10,O  18,H  20)           66.2624         0.097603   
     85. A(C  10,O  18,H  19)          122.6634         0.097603   
     86. A(C  10,O  18,C  12)           24.9037         0.089277   
     87. A(C   9,O  18,H  20)           76.8752         0.097732   
     88. A(C   9,O  18,H  19)          131.7560         0.097732   
     89. D(C   4,C   3,C   2,C   1)   -180.0000         0.039995   
     90. D(H  14,C   3,C   2,C   1)      0.0000         0.039995   
     91. D(C   4,C   3,C   2,C  12)     -0.0000         0.039995   
     92. D(H  14,C   3,C   2,C  12)   -180.0000         0.039995   
     93. D(C  10,C   4,C   3,H  14)   -180.0000         0.016902   
     94. D(C   5,C   4,C   3,C   2)   -180.0000         0.016902   
     95. D(C   5,C   4,C   3,H  14)     -0.0000         0.016902   
     96. D(C  10,C   4,C   3,C   2)      0.0000         0.016902   
     97. D(C   6,C   5,C   4,C   3)   -180.0000         0.027335   
     98. D(C   6,C   5,C   4,C  10)      0.0000         0.027335   
     99. D(H  15,C   5,C   4,C  10)   -180.0000         0.027335   
    100. D(H  15,C   5,C   4,C   3)      0.0000         0.027335   
    101. D(H  16,C   6,C   5,C   4)    179.9999         0.024445   
    102. D(C   7,C   6,C   5,H  15)    180.0000         0.024445   
    103. D(C   7,C   6,C   5,C   4)     -0.0000         0.024445   
    104. D(H  16,C   6,C   5,H  15)     -0.0001         0.024445   
    105. D(C   9,C   7,C   6,C   5)      0.0000         0.023245   
    106. D(O   8,C   7,C   6,C   5)   -180.0000         0.023245   
    107. D(C   9,C   7,C   6,H  16)   -179.9999         0.023245   
    108. D(O   8,C   7,C   6,H  16)      0.0000         0.023245   
    109. D(O  18,C   9,C   7,O   8)    -79.9188         0.027775   
    110. D(O  18,C   9,C   7,C   6)    100.0812         0.027775   
    111. D(H  17,C   9,C   7,C   6)    180.0000         0.027775   
    112. D(C  10,C   9,C   7,C   6)     -0.0000         0.027775   
    113. D(H  17,C   9,C   7,O   8)      0.0000         0.027775   
    114. D(C  10,C   9,C   7,O   8)   -180.0000         0.027775   
    115. D(O  18,C  10,C   4,C   3)     81.5709         0.032541   
    116. D(O  11,C  10,C   4,C   5)   -180.0000         0.032541   
    117. D(O  11,C  10,C   4,C   3)     -0.0000         0.032541   
    118. D(C   9,C  10,C   4,C   5)      0.0000         0.032541   
    119. D(O  18,C  10,C   9,C   7)    118.5272         0.033898   
    120. D(O  18,C  10,C   9,H  17)    -61.4728         0.033898   
    121. D(O  11,C  10,C   9,O  18)     61.4728         0.033898   
    122. D(O  11,C  10,C   9,H  17)     -0.0000         0.033898   
    123. D(O  11,C  10,C   9,C   7)    180.0000         0.033898   
    124. D(C   9,C  10,C   4,C   3)    180.0000         0.032541   
    125. D(C   4,C  10,C   9,O  18)   -118.5272         0.033898   
    126. D(C   4,C  10,C   9,H  17)    180.0000         0.033898   
    127. D(C   4,C  10,C   9,C   7)     -0.0000         0.033898   
    128. D(O  18,C  10,C   4,C   5)    -98.4291         0.032541   
    129. D(O  18,O  11,C  10,C   4)    111.4954         0.026947   
    130. D(C  12,O  11,C  10,C   9)    179.9999         0.026947   
    131. D(C  12,O  11,C  10,C   4)     -0.0001         0.026947   
    132. D(C  12,O  11,C  10,O  18)   -111.4955         0.026947   
    133. D(O  18,O  11,C  10,C   9)    -68.5045         0.026947   
    134. D(O  18,C  12,O  11,C  10)    106.8710         0.031471   
    135. D(O  13,C  12,O  11,C  10)   -179.9999         0.031471   
    136. D(C   2,C  12,O  11,O  18)   -106.8709         0.031471   
    137. D(C   2,C  12,O  11,C  10)      0.0001         0.031471   
    138. D(O  13,C  12,C   2,C   3)    179.9999         0.015984   
    139. D(O  13,C  12,C   2,C   1)     -0.0001         0.015984   
    140. D(O  11,C  12,C   2,C   3)     -0.0001         0.015984   
    141. D(O  11,C  12,C   2,C   1)    179.9999         0.015984   
    142. D(O  13,C  12,O  11,O  18)     73.1291         0.031471   
    143. D(O  18,C  12,C   2,C   3)    -70.0208         0.015984   
    144. D(O  18,C  12,C   2,C   1)    109.9792         0.015984   
    145. D(H  20,O  18,C   9,H  17)     83.5695         0.001500   
    146. D(H  20,O  18,C   9,C  10)    -41.4150         0.001500   
    147. D(H  20,O  18,C   9,C   7)   -164.2309         0.001500   
    148. D(H  19,O  18,C   9,H  17)   -179.2884         0.001500   
    149. D(H  19,O  18,C   9,C  10)     55.7271         0.001500   
    150. D(C  10,O  18,C   9,C   7)   -122.8158         0.001500   
    151. D(H  19,O  18,C   9,C   7)    -67.0887         0.001500   
    152. D(O  11,O  18,C  12,O  13)   -125.0535         0.001500   
    153. D(O  11,O  18,C  12,C   2)    108.1393         0.001500   
    154. D(C  10,O  18,C  12,O  11)    -29.5336         0.001500   
    155. D(C  10,O  18,C  12,C   2)     78.6057         0.001500   
    156. D(C   9,O  18,C  12,O  13)   -143.2451         0.001500   
    157. D(C   9,O  18,C  12,O  11)    -18.1916         0.001500   
    158. D(C   9,O  18,C  12,C   2)     89.9477         0.001500   
    159. D(H  20,O  18,C  12,O  13)      4.0002         0.001500   
    160. D(H  20,O  18,C  12,O  11)    129.0536         0.001500   
    161. D(H  19,O  18,C  12,O  13)     88.7712         0.001500   
    162. D(H  19,O  18,C  12,O  11)   -146.1753         0.001500   
    163. D(H  19,O  18,C  12,C   2)    -38.0360         0.001500   
    164. D(C  10,O  18,O  11,C  12)    124.7014         0.001500   
    165. D(C   9,O  18,O  11,C  12)    153.4820         0.001500   
    166. D(C   9,O  18,O  11,C  10)     28.7806         0.001500   
    167. D(H  20,O  18,O  11,C  10)   -166.5389         0.001500   
    168. D(H  19,O  18,O  11,C  12)     38.3340         0.001500   
    169. D(H  19,O  18,O  11,C  10)    -86.3674         0.001500   
    170. D(C  12,O  18,C  10,O  11)     27.2132         0.001500   
    171. D(C  12,O  18,C  10,C   9)    150.9266         0.001500   
    172. D(C  12,O  18,C  10,C   4)    -87.4584         0.001500   
    173. D(O  11,O  18,C  10,C   9)    123.7134         0.001500   
    174. D(H  20,O  18,O  11,C  12)    -41.8375         0.001500   
    175. D(O  11,O  18,C  10,C   4)   -114.6717         0.001500   
    176. D(C   9,O  18,C  10,O  11)   -123.7134         0.001500   
    177. D(C   9,O  18,C  10,C   4)    121.6149         0.001500   
    178. D(C  12,O  18,O  11,C  10)   -124.7014         0.001500   
    179. D(H  20,O  18,C  10,O  11)     11.5565         0.001500   
    180. D(H  20,O  18,C  10,C   9)    135.2699         0.001500   
    181. D(H  20,O  18,C  10,C   4)   -103.1152         0.001500   
    182. D(H  20,O  18,C  12,C   2)   -122.8071         0.001500   
    183. D(H  19,O  18,C  10,O  11)    103.3629         0.001500   
    184. D(H  19,O  18,C  10,C   9)   -132.9237         0.001500   
    185. D(H  19,O  18,C  10,C   4)    -11.3088         0.001500   
    186. D(C  12,O  18,C   9,H  17)    105.6512         0.001500   
    187. D(C  12,O  18,C   9,C  10)    -19.3333         0.001500   
    188. D(C  12,O  18,C   9,C   7)   -142.1491         0.001500   
    189. D(O  11,O  18,C   9,H  17)     95.9099         0.001500   
    190. D(C  10,O  18,C  12,O  13)   -154.5871         0.001500   
    191. D(O  11,O  18,C   9,C  10)    -29.0746         0.001500   
    192. D(O  11,O  18,C   9,C   7)   -151.8904         0.001500   
    193. D(C  10,O  18,C   9,H  17)    124.9845         0.001500   
    -----------------------------------------------------------------

Number of atoms                         .... 21
Number of degrees of freedom            .... 193

         *************************************************************
         *                GEOMETRY OPTIMIZATION CYCLE   1            *
         *************************************************************
---------------------------------
CARTESIAN COORDINATES (ANGSTROEM)
---------------------------------
  N    -0.934059   -4.689148   -0.300813
  C    -0.789539   -3.564798   -0.046780
  C    -0.581237   -2.180989    0.196196
  C     0.000284   -1.411545   -0.735008
  C     0.210207    0.002077   -0.480230
  C     0.807281    0.843489   -1.409606
  C     0.982376    2.201535   -1.103995
  C     0.580879    2.780768    0.116658
  O     0.749466    4.016257    0.373410
  C    -0.018621    1.891869    1.026883
  C    -0.196975    0.538762    0.731304
  O    -0.807834   -0.270072    1.709193
  C    -1.021947   -1.625128    1.494475
  O    -1.554810   -2.328768    2.348498
  H     0.326918   -1.810149   -1.690275
  H     1.145731    0.479864   -2.373731
  H     1.452993    2.848351   -1.845057
  H    -0.351113    2.277625    1.988879
  O     3.121849   -0.066560    5.133839
  H     3.887529   -0.660439    5.133839
  H     2.360605   -0.666117    5.133839

----------------------------
CARTESIAN COORDINATES (A.U.)
----------------------------
  NO LB    ZA    FRAG    MASS        X           Y           Z
   0 N   7.0000    0    14.007   -1.765116   -8.861205   -0.568454
   1 C   6.0000    0    12.011   -1.492013   -6.736492   -0.088402
   2 C   6.0000    0    12.011   -1.098378   -4.121471    0.370756
   3 C   6.0000    0    12.011    0.000537   -2.667433   -1.388963
   4 C   6.0000    0    12.011    0.397233    0.003924   -0.907503
   5 C   6.0000    0    12.011    1.525540    1.593963   -2.663769
   6 C   6.0000    0    12.011    1.856422    4.160299   -2.086247
   7 C   6.0000    0    12.011    1.097703    5.254891    0.220451
   8 O   8.0000    0    15.999    1.416285    7.589625    0.705642
   9 C   6.0000    0    12.011   -0.035189    3.575114    1.940528
  10 C   6.0000    0    12.011   -0.372228    1.018113    1.381964
  11 O   8.0000    0    15.999   -1.526585   -0.510361    3.229906
  12 C   6.0000    0    12.011   -1.931200   -3.071047    2.824148
  13 O   8.0000    0    15.999   -2.938165   -4.400735    4.438018
  14 H   1.0000    0     1.008    0.617786   -3.420685   -3.194156
  15 H   1.0000    0     1.008    2.165118    0.906811   -4.485702
  16 H   1.0000    0     1.008    2.745758    5.382603   -3.486651
  17 H   1.0000    0     1.008   -0.663507    4.304088    3.758436
  18 O   8.0000    0    15.999    5.899439   -0.125779    9.701549
  19 H   1.0000    0     1.008    7.346365   -1.248049    9.701549
  20 H   1.0000    0     1.008    4.460897   -1.258778    9.701549

      -----------------------------------------------------------      
     |                   =====================                   |     
     |                           x T B                           |     
     |                   =====================                   |     
     |                         S. Grimme                         |     
     |          Mulliken Center for Theoretical Chemistry        |     
     |                    University of Bonn                     |     
      -----------------------------------------------------------      

   * xtb version 6.6.1 (8d0f1dd) compiled by 'stahn@M-Bot' on 2023-08-01

   xtb is free software: you can redistribute it and/or modify it under
   the terms of the GNU Lesser General Public License as published by
   the Free Software Foundation, either version 3 of the License, or
   (at your option) any later version.
   
   xtb is distributed in the hope that it will be useful,
   but WITHOUT ANY WARRANTY; without even the implied warranty of
   MERCHANTABILITY or FITNESS FOR A PARTICULAR PURPOSE.  See the
   GNU Lesser General Public License for more details.
   
   Cite this work as:
   * C. Bannwarth, E. Caldeweyher, S. Ehlert, A. Hansen, P. Pracht,
     J. Seibert, S. Spicher, S. Grimme, WIREs Comput. Mol. Sci., 2020, 11,
     e01493. DOI: 10.1002/wcms.1493
   
   for GFN2-xTB:
   * C. Bannwarth, S. Ehlert and S. Grimme., J. Chem. Theory Comput., 2019,
     15, 1652-1671. DOI: 10.1021/acs.jctc.8b01176
   for GFN1-xTB:
   * S. Grimme, C. Bannwarth, P. Shushkov, J. Chem. Theory Comput., 2017,
     13, 1989-2009. DOI: 10.1021/acs.jctc.7b00118
   for GFN0-xTB:
   * P. Pracht, E. Caldeweyher, S. Ehlert, S. Grimme, ChemRxiv, 2019, preprint.
     DOI: 10.26434/chemrxiv.8326202.v1
   for GFN-FF:
   * S. Spicher and S. Grimme, Angew. Chem. Int. Ed., 2020, 59, 15665-15673.
     DOI: 10.1002/anie.202004239
   
   for ALPB and GBSA implicit solvation:
   * S. Ehlert, M. Stahn, S. Spicher, S. Grimme, J. Chem. Theory Comput.,
     2021, 17, 4250-4261. DOI: 10.1021/acs.jctc.1c00471
   
   for DFT-D4:
   * E. Caldeweyher, C. Bannwarth and S. Grimme, J. Chem. Phys., 2017,
     147, 034112. DOI: 10.1063/1.4993215
   * E. Caldeweyher, S. Ehlert, A. Hansen, H. Neugebauer, S. Spicher,
     C. Bannwarth and S. Grimme, J. Chem. Phys., 2019, 150, 154122.
     DOI: 10.1063/1.5090222
   * E. Caldeweyher, J.-M. Mewes, S. Ehlert and S. Grimme, Phys. Chem. Chem. Phys.
     2020, 22, 8499-8512. DOI: 10.1039/D0CP00502A
   
   for sTDA-xTB:
   * S. Grimme and C. Bannwarth, J. Chem. Phys., 2016, 145, 054103.
     DOI: 10.1063/1.4959605
   
   in the mass-spec context:
   * V. Asgeirsson, C. Bauer and S. Grimme, Chem. Sci., 2017, 8, 4879.
     DOI: 10.1039/c7sc00601b
   * J. Koopman and S. Grimme, ACS Omega 2019, 4, 12, 15120-15133.
     DOI: 10.1021/acsomega.9b02011
   
   for metadynamics refer to:
   * S. Grimme, J. Chem. Theory Comput., 2019, 155, 2847-2862
     DOI: 10.1021/acs.jctc.9b00143
   
   for SPH calculations refer to:
   * S. Spicher and S. Grimme, J. Chem. Theory Comput., 2021, 17, 1701-1714
     DOI: 10.1021/acs.jctc.0c01306
   
   with help from (in alphabetical order)
   P. Atkinson, C. Bannwarth, F. Bohle, G. Brandenburg, E. Caldeweyher
   M. Checinski, S. Dohm, S. Ehlert, S. Ehrlich, I. Gerasimov, C. Hölzer
   A. Katbashev, J. Koopman, C. Lavigne, S. Lehtola, F. März, M. Müller,
   F. Musil, H. Neugebauer, J. Pisarek, C. Plett, P. Pracht, F. Pultar,
   J. Seibert, P. Shushkov, S. Spicher, M. Stahn, M. Steiner, T. Strunk,
   J. Stückrath, T. Rose, and J. Unsleber
   
 * started run on 2025/01/14 at 21:16:11.593     

           -------------------------------------------------
          |                Calculation Setup                |
           -------------------------------------------------

          program call               : /home/jang/cal_tmp/10_orca/orca_5_0_4_linux_x86-64_shared_openmpi411/otool_xtb /home/jang/cal_tmp/10_orca/Gen_chromophore/Gen_molecular_pairs_cal/mol_2_10.xyz/input_XTB.xyz --grad -c 0 -u 0 -P 4 --namespace /home/jang/cal_tmp/10_orca/Gen_chromophore/Gen_molecular_pairs_cal/mol_2_10.xyz/input --input /home/jang/cal_tmp/10_orca/Gen_chromophore/Gen_molecular_pairs_cal/mol_2_10.xyz/input_XTB.input.tmp --acc 1.000000
          hostname                   : node02
          calculation namespace      : /home/jang/cal_tmp/10_orca/Gen_chromophore/Gen_molecular_pairs_cal/mol_2_10.xyz/input
          coordinate file            : /home/jang/cal_tmp/10_orca/Gen_chromophore/Gen_molecular_pairs_cal/mol_2_10.xyz/input_XTB.xyz
          omp threads                :                     4

   ID    Z sym.   atoms
    1    7 N      1
    2    6 C      2-8, 10, 11, 13
    3    8 O      9, 12, 14, 19
    4    1 H      15-18, 20, 21

molecular fragmentation (1/2 indicates fragments):
111111111111111111222
# atoms in fragment 1/2:    18     3
 fragment masses (1/2) :      186.14       18.02
CMA distance (Bohr)    :  11.046
constraining FC (au)   :  0.0500

           -------------------------------------------------
          |                 G F N 2 - x T B                 |
           -------------------------------------------------

        Reference                      10.1021/acs.jctc.8b01176
      * Hamiltonian:
        H0-scaling (s, p, d)           1.850000    2.230000    2.230000
        zeta-weighting                 0.500000
      * Dispersion:
        s8                             2.700000
        a1                             0.520000
        a2                             5.000000
        s9                             5.000000
      * Repulsion:
        kExp                           1.500000    1.000000
        rExp                           1.000000
      * Coulomb:
        alpha                          2.000000
        third order                    shell-resolved
        anisotropic                    true
        a3                             3.000000
        a5                             4.000000
        cn-shift                       1.200000
        cn-exp                         4.000000
        max-rad                        5.000000


          ...................................................
          :                      SETUP                      :
          :.................................................:
          :  # basis functions                  66          :
          :  # atomic orbitals                  66          :
          :  # shells                           36          :
          :  # electrons                        75          :
          :  max. iterations                   250          :
          :  Hamiltonian                  GFN2-xTB          :
          :  restarted?                      false          :
          :  GBSA solvation                  false          :
          :  PC potential                    false          :
          :  electronic temp.          300.0000000     K    :
          :  accuracy                    1.0000000          :
          :  -> integral cutoff          0.2500000E+02      :
          :  -> integral neglect         0.1000000E-07      :
          :  -> SCF convergence          0.1000000E-05 Eh   :
          :  -> wf. convergence          0.1000000E-03 e    :
          :  Broyden damping             0.4000000          :
          ...................................................

 iter      E             dE          RMSdq      gap      omega  full diag
   1    -43.9717154 -0.439717E+02  0.629E+00    2.72       0.0  T
   2    -43.9319855  0.397299E-01  0.381E+00    1.56       1.0  T
   3    -43.9218654  0.101201E-01  0.331E+00    2.80       1.0  T
   4    -44.0634463 -0.141581E+00  0.154E+00    2.05       1.0  T
   5    -44.0927925 -0.293462E-01  0.752E-01    2.33       1.0  T
   6    -44.0947615 -0.196904E-02  0.593E-01    2.22       1.0  T
   7    -44.0953045 -0.543008E-03  0.311E-01    2.23       1.0  T
   8    -44.0960479 -0.743361E-03  0.793E-02    2.20       1.0  T
   9    -44.0961552 -0.107325E-03  0.340E-02    2.21       1.0  T
  10    -44.0961647 -0.950100E-05  0.157E-02    2.21       1.4  T
  11    -44.0961681 -0.339997E-05  0.404E-03    2.21       5.4  T
  12    -44.0961682 -0.451330E-07  0.231E-03    2.21       9.5  T
  13    -44.0961682 -0.242281E-07  0.116E-03    2.21      18.9  T
  14    -44.0961682 -0.485098E-08  0.475E-04    2.21      45.9  T
  15    -44.0961682 -0.282590E-08  0.194E-04    2.21     112.5  T

   *** convergence criteria satisfied after 15 iterations ***

         #    Occupation            Energy/Eh            Energy/eV
      -------------------------------------------------------------
         1        2.0000           -0.7847562             -21.3543
       ...           ...                  ...                  ...
        32        2.0000           -0.4773361             -12.9890
        33        2.0000           -0.4647747             -12.6472
        34        2.0000           -0.4571336             -12.4392
        35        2.0000           -0.4516832             -12.2909
        36        2.0000           -0.4502316             -12.2514
        37        1.9930           -0.4314993             -11.7417
        38        1.0070           -0.4220847             -11.4855 (HOMO)
        39                         -0.3409127              -9.2767 (LUMO)
        40                         -0.2963595              -8.0644
        41                         -0.2735768              -7.4444
        42                         -0.2523022              -6.8655
        43                         -0.2442308              -6.6459
       ...                                ...                  ...
        66                          1.0527638              28.6472
      -------------------------------------------------------------
                  HL-Gap            0.0811720 Eh            2.2088 eV
             Fermi-level           -0.4041454 Eh          -10.9974 eV

 SCC (total)                   0 d,  0 h,  0 min,  0.064 sec
 SCC setup                      ...        0 min,  0.001 sec (  0.835%)
 Dispersion                     ...        0 min,  0.001 sec (  0.817%)
 classical contributions        ...        0 min,  0.000 sec (  0.246%)
 integral evaluation            ...        0 min,  0.003 sec (  4.186%)
 iterations                     ...        0 min,  0.054 sec ( 84.596%)
 molecular gradient             ...        0 min,  0.005 sec (  8.158%)
 printout                       ...        0 min,  0.001 sec (  0.975%)

         :::::::::::::::::::::::::::::::::::::::::::::::::::::
         ::                     SUMMARY                     ::
         :::::::::::::::::::::::::::::::::::::::::::::::::::::
         :: total energy             -43.529385230512 Eh    ::
         :: gradient norm              0.153066312439 Eh/a0 ::
         :: HOMO-LUMO gap              2.208802507726 eV    ::
         ::.................................................::
         :: SCC energy               -44.096168213181 Eh    ::
         :: -> isotropic ES            0.104748171854 Eh    ::
         :: -> anisotropic ES          0.002061512467 Eh    ::
         :: -> anisotropic XC          0.022672500598 Eh    ::
         :: -> dispersion             -0.018747528135 Eh    ::
         :: repulsion energy           0.566726999074 Eh    ::
         :: add. restraining           0.000000000000 Eh    ::
         :: total charge               0.000000000024 e     ::
         :::::::::::::::::::::::::::::::::::::::::::::::::::::


Property printout bound to 'properties.out'

           -------------------------------------------------
          | TOTAL ENERGY              -43.529385230512 Eh   |
          | GRADIENT NORM               0.153066312439 Eh/α |
          | HOMO-LUMO GAP               2.208802507726 eV   |
           -------------------------------------------------

------------------------------------------------------------------------
 * finished run on 2025/01/14 at 21:16:12.577     
------------------------------------------------------------------------
 total:
 * wall-time:     0 d,  0 h,  0 min,  0.982 sec
 *  cpu-time:     0 d,  0 h,  0 min,  1.125 sec
 * ratio c/w:     1.146 speedup
 SCF:
 * wall-time:     0 d,  0 h,  0 min,  0.064 sec
 *  cpu-time:     0 d,  0 h,  0 min,  0.239 sec
 * ratio c/w:     3.731 speedup


-------------------------   --------------------
FINAL SINGLE POINT ENERGY       -43.529385230510
-------------------------   --------------------

------------------------------------------------------------------------------
                         ORCA GEOMETRY RELAXATION STEP
------------------------------------------------------------------------------

Reading the OPT-File                    .... done
Getting information on internals        .... done
Copying old internal coords+grads       .... done
Making the new internal coordinates     .... (new redundants).... done
Validating the new internal coordinates .... (new redundants).... done
Calculating the B-matrix                .... done
Calculating the G,G- and P matrices     .... done
Transforming gradient to internals      .... done
Projecting the internal gradient        .... done
Number of atoms                         ....  21
Number of internal coordinates          .... 193
Current Energy                          ....   -43.529385231 Eh
Current gradient norm                   ....     0.153066312 Eh/bohr
Maximum allowed component of the step   ....  0.300
Current trust radius                    ....  0.300
Evaluating the initial hessian          ....  (Almloef) done
Projecting the Hessian                  .... done
Forming the augmented Hessian           .... done
Diagonalizing the augmented Hessian     .... done
Last element of RFO vector              ....  0.981271155
Lowest eigenvalues of augmented Hessian:
 -0.017684718  0.000130924  0.002455098  0.006033281  0.017449277
Length of the computed step             ....  0.196308194
The final length of the internal step   ....  0.196308194
Converting the step to cartesian space:
 Initial RMS(Int)=    0.0141305730
Transforming coordinates:
 Iter   0:  RMS(Cart)=    0.0335717746 RMS(Int)=    1.3564285303
 Iter   1:  RMS(Cart)=    0.0002784156 RMS(Int)=    0.0001609049
 Iter   2:  RMS(Cart)=    0.0000050483 RMS(Int)=    0.0000027392
 Iter   3:  RMS(Cart)=    0.0000011822 RMS(Int)=    0.0000006655
 Iter   4:  RMS(Cart)=    0.0000005860 RMS(Int)=    0.0000003272
 Iter   5:  RMS(Cart)=    0.0000002886 RMS(Int)=    0.0000001612
 Iter   6:  RMS(Cart)=    0.0000001422 RMS(Int)=    0.0000000794
 Iter   7:  RMS(Cart)=    0.0000000700 RMS(Int)=    0.0000000391
done
Storing new coordinates                 .... done

                                .--------------------.
          ----------------------|Geometry convergence|-------------------------
          Item                value                   Tolerance       Converged
          ---------------------------------------------------------------------
          RMS gradient        0.0076954403            0.0001000000      NO
          MAX gradient        0.0437279303            0.0003000000      NO
          RMS step            0.0141305730            0.0020000000      NO
          MAX step            0.0569283196            0.0040000000      NO
          ........................................................
          Max(Bonds)      0.0301      Max(Angles)    1.19
          Max(Dihed)        1.69      Max(Improp)    0.00
          ---------------------------------------------------------------------

The optimization has not yet converged - more geometry cycles are needed


    ---------------------------------------------------------------------------
                         Redundant Internal Coordinates
                            (Angstroem and degrees)

        Definition                    Value    dE/dq     Step     New-Value
    ----------------------------------------------------------------------------
     1. B(C   1,N   0)                1.1617  0.039371 -0.0159    1.1458   
     2. B(C   2,C   1)                1.4203  0.006586 -0.0060    1.4143   
     3. B(C   3,C   2)                1.3407 -0.013920  0.0128    1.3534   
     4. B(C   4,C   3)                1.4517  0.025410 -0.0214    1.4303   
     5. B(C   5,C   4)                1.3886 -0.020201  0.0154    1.4040   
     6. B(C   6,C   5)                1.4030  0.033532 -0.0301    1.3729   
     7. B(C   7,C   6)                1.4095 -0.028214  0.0249    1.4344   
     8. B(O   8,C   7)                1.2731  0.037106 -0.0224    1.2507   
     9. B(C   9,C   7)                1.4064 -0.025654  0.0237    1.4301   
    10. B(C  10,C   9)                1.3965  0.024494 -0.0210    1.3755   
    11. B(C  10,C   4)                1.3862 -0.023939  0.0193    1.4056   
    12. B(O  11,C  10)                1.4084  0.017284 -0.0274    1.3811   
    13. B(C  12,O  11)                1.3886  0.016182 -0.0233    1.3652   
    14. B(C  12,C   2)                1.4794  0.002173 -0.0022    1.4772   
    15. B(O  13,C  12)                1.2282  0.043728 -0.0228    1.2053   
    16. B(H  14,C   3)                1.0854  0.002751 -0.0038    1.0816   
    17. B(H  15,C   5)                1.0846  0.004280 -0.0059    1.0787   
    18. B(H  16,C   6)                1.0904  0.005780 -0.0081    1.0823   
    19. B(H  17,C   9)                1.0885  0.005389 -0.0071    1.0814   
    20. B(O  18,C  12)                5.7311  0.003852 -0.0067    5.7244   
    21. B(O  18,O  11)                5.2165 -0.002409  0.0059    5.2225   
    22. B(O  18,C  10)                5.5465  0.000079  0.0009    5.5474   
    23. B(O  18,C   9)                5.5286 -0.000021 -0.0032    5.5254   
    24. B(O  18,H  17)                5.2390 -0.001046 -0.0017    5.2373   
    25. B(H  19,O  18)                0.9690  0.007185 -0.0073    0.9617   
    26. B(H  20,O  13)                5.0846  0.006088 -0.0175    5.0671   
    27. B(H  20,C  12)                5.0603 -0.003201  0.0033    5.0635   
    28. B(H  20,O  11)                4.6823 -0.007127  0.0124    4.6947   
    29. B(H  20,C  10)                5.2321 -0.000388  0.0019    5.2340   
    30. B(H  20,C   9)                5.3918  0.004292 -0.0094    5.3824   
    31. B(H  20,O  18)                0.9690  0.006670 -0.0072    0.9618   
    32. B(H  20,H  17)                5.0902  0.003242 -0.0107    5.0795   
    33. L(N   0,C   1,C   2,C   3, 2) 180.00 -0.000049    0.01    180.01   
    34. L(N   0,C   1,C   2,C   3, 1) 176.97 -0.000765    0.09    177.05   
    35. A(C   1,C   2,C   3)          120.26 -0.001655    0.38    120.64   
    36. A(C   1,C   2,C  12)          118.20  0.004333   -0.40    117.79   
    37. A(C   3,C   2,C  12)          121.54 -0.002679    0.02    121.56   
    38. A(C   4,C   3,H  14)          117.94 -0.003267    0.34    118.28   
    39. A(C   2,C   3,C   4)          119.98  0.005182   -0.46    119.52   
    40. A(C   2,C   3,H  14)          122.08 -0.001914    0.12    122.20   
    41. A(C   5,C   4,C  10)          118.47 -0.003674    0.63    119.10   
    42. A(C   3,C   4,C   5)          122.33  0.001827   -0.00    122.32   
    43. A(C   3,C   4,C  10)          119.20  0.001847   -0.62    118.58   
    44. A(C   6,C   5,H  15)          118.63 -0.000500    0.23    118.87   
    45. A(C   4,C   5,C   6)          119.63 -0.004365    0.36    119.99   
    46. A(C   4,C   5,H  15)          121.73  0.004866   -0.60    121.14   
    47. A(C   5,C   6,C   7)          123.43  0.007107   -0.99    122.44   
    48. A(C   5,C   6,H  16)          118.69 -0.004010    0.56    119.25   
    49. A(C   7,C   6,H  16)          117.89 -0.003097    0.42    118.31   
    50. A(O   8,C   7,C   9)          122.63  0.003257   -0.59    122.05   
    51. A(C   6,C   7,C   9)          114.97 -0.006065    1.13    116.10   
    52. A(C   6,C   7,O   8)          122.39  0.002808   -0.54    121.86   
    53. A(C  10,C   9,H  17)          119.44 -0.001156    0.25    119.69   
    54. A(C   7,C   9,H  17)          118.57 -0.001916    0.62    119.18   
    55. A(C   7,C   9,C  10)          122.00  0.003072   -0.87    121.13   
    56. A(H  17,C   9,O  18)           69.05 -0.000055    0.01     69.07   
    57. A(C  10,C   9,O  18)           83.49 -0.001262    0.29     83.77   
    58. A(C   7,C   9,O  18)          117.55 -0.000021   -0.02    117.53   
    59. A(C   4,C  10,O  11)          120.79 -0.002962    0.62    121.41   
    60. A(C   4,C  10,C   9)          121.51  0.003925   -0.26    121.25   
    61. A(C   9,C  10,O  18)           82.03 -0.001097   -0.07     81.96   
    62. A(C   4,C  10,O  18)          118.41 -0.000769    0.08    118.49   
    63. A(C   9,C  10,O  11)          117.70 -0.000963   -0.36    117.35   
    64. A(O  11,C  10,O  18)           69.25 -0.000243    0.09     69.34   
    65. A(C  12,O  11,O  18)          104.82 -0.000647   -0.06    104.75   
    66. A(C  10,O  11,O  18)           96.12 -0.001492    0.21     96.34   
    67. A(C  10,O  11,C  12)          121.33 -0.000399    0.39    121.71   
    68. A(O  11,C  12,O  18)           61.64 -0.000794    0.28     61.91   
    69. A(C   2,C  12,O  18)          116.36 -0.000946    0.07    116.43   
    70. A(O  11,C  12,O  13)          121.23  0.002168   -1.19    120.04   
    71. A(O  13,C  12,O  18)           91.60  0.001594   -0.83     90.77   
    72. A(C   2,C  12,O  13)          121.61 -0.001179    1.13    122.74   
    73. A(C   2,C  12,O  11)          117.16 -0.000989    0.06    117.22   
    74. A(H  19,O  18,H  20)          103.98 -0.001637    0.82    104.80   
    75. A(O  11,O  18,C  12)           13.55  0.001441   -0.21     13.33   
    76. A(C   9,O  18,C  12)           38.18  0.004843   -0.64     37.54   
    77. A(C  12,O  18,H  20)           42.58 -0.001949    0.40     42.99   
    78. A(C  12,O  18,H  19)          113.87 -0.002902    0.52    114.39   
    79. A(C  10,O  18,O  11)           14.62  0.001734   -0.30     14.33   
    80. A(C   9,O  18,O  11)           25.61  0.003533   -0.50     25.11   
    81. A(O  11,O  18,H  20)           51.98 -0.000967    0.20     52.18   
    82. A(O  11,O  18,H  19)          124.84 -0.001549    0.25    125.09   
    83. A(C   9,O  18,C  10)           14.49  0.002359   -0.22     14.27   
    84. A(C  10,O  18,H  20)           66.26  0.000644   -0.04     66.22   
    85. A(C  10,O  18,H  19)          122.66 -0.001851    0.23    122.89   
    86. A(C  10,O  18,C  12)           24.90  0.002655   -0.39     24.51   
    87. A(C   9,O  18,H  20)           76.88  0.002552   -0.39     76.48   
    88. A(C   9,O  18,H  19)          131.76 -0.000471    0.15    131.90   
    89. D(C   4,C   3,C   2,C   1)   -180.00  0.001676   -0.21   -180.21   
    90. D(H  14,C   3,C   2,C   1)      0.00  0.000060    0.03      0.03   
    91. D(C   4,C   3,C   2,C  12)     -0.00  0.001304   -0.17     -0.17   
    92. D(H  14,C   3,C   2,C  12)   -180.00 -0.000312    0.07   -179.93   
    93. D(C  10,C   4,C   3,H  14)   -180.00  0.000180    0.01   -179.99   
    94. D(C   5,C   4,C   3,C   2)   -180.00 -0.001968    0.33   -179.67   
    95. D(C   5,C   4,C   3,H  14)     -0.00 -0.000418    0.11      0.11   
    96. D(C  10,C   4,C   3,C   2)      0.00 -0.001370    0.24      0.24   
    97. D(C   6,C   5,C   4,C   3)   -180.00  0.001157   -0.16   -180.16   
    98. D(C   6,C   5,C   4,C  10)      0.00  0.000563   -0.06     -0.06   
    99. D(H  15,C   5,C   4,C  10)   -180.00  0.000093    0.01   -179.99   
   100. D(H  15,C   5,C   4,C   3)      0.00  0.000687   -0.09     -0.09   
   101. D(H  16,C   6,C   5,C   4)    180.00 -0.000269    0.05    180.05   
   102. D(C   7,C   6,C   5,H  15)    180.00  0.000608   -0.06    179.94   
   103. D(C   7,C   6,C   5,C   4)     -0.00  0.000152    0.01      0.01   
   104. D(H  16,C   6,C   5,H  15)     -0.00  0.000187   -0.02     -0.02   
   105. D(C   9,C   7,C   6,C   5)      0.00 -0.000432    0.04      0.04   
   106. D(O   8,C   7,C   6,C   5)   -180.00 -0.000506    0.11   -179.89   
   107. D(C   9,C   7,C   6,H  16)   -180.00 -0.000014   -0.01   -180.01   
   108. D(O   8,C   7,C   6,H  16)      0.00 -0.000088    0.07      0.07   
   109. D(O  18,C   9,C   7,O   8)    -79.92  0.000340   -0.29    -80.21   
   110. D(O  18,C   9,C   7,C   6)    100.08  0.000267   -0.21     99.87   
   111. D(H  17,C   9,C   7,C   6)    180.00 -0.000640    0.06    180.06   
   112. D(C  10,C   9,C   7,C   6)     -0.00  0.000006   -0.03     -0.03   
   113. D(H  17,C   9,C   7,O   8)      0.00 -0.000567   -0.01     -0.01   
   114. D(C  10,C   9,C   7,O   8)   -180.00  0.000080   -0.10   -180.10   
   115. D(O  18,C  10,C   4,C   3)     81.57 -0.002064    0.37     81.94   
   116. D(O  11,C  10,C   4,C   5)   -180.00  0.000574   -0.16   -180.16   
   117. D(O  11,C  10,C   4,C   3)     -0.00 -0.000001   -0.07     -0.07   
   118. D(C   9,C  10,C   4,C   5)      0.00 -0.000990    0.07      0.07   
   119. D(O  18,C  10,C   9,C   7)    118.53 -0.000200   -0.02    118.51   
   120. D(O  18,C  10,C   9,H  17)    -61.47  0.000452   -0.11    -61.58   
   121. D(O  11,C  10,C   9,O  18)     61.47 -0.000605    0.22     61.69   
   122. D(O  11,C  10,C   9,H  17)     -0.00 -0.000153    0.11      0.11   
   123. D(O  11,C  10,C   9,C   7)    180.00 -0.000805    0.20    180.20   
   124. D(C   9,C  10,C   4,C   3)    180.00 -0.001564    0.16    180.16   
   125. D(C   4,C  10,C   9,O  18)   -118.53  0.000912   -0.01   -118.53   
   126. D(C   4,C  10,C   9,H  17)    180.00  0.001364   -0.11    179.89   
   127. D(C   4,C  10,C   9,C   7)     -0.00  0.000712   -0.02     -0.02   
   128. D(O  18,C  10,C   4,C   5)    -98.43 -0.001489    0.27    -98.16   
   129. D(O  18,O  11,C  10,C   4)    111.50 -0.000514    0.03    111.53   
   130. D(C  12,O  11,C  10,C   9)    180.00  0.002964   -0.40    179.60   
   131. D(C  12,O  11,C  10,C   4)     -0.00  0.001458   -0.17     -0.17   
   132. D(C  12,O  11,C  10,O  18)   -111.50  0.001972   -0.21   -111.70   
   133. D(O  18,O  11,C  10,C   9)    -68.50  0.000992   -0.19    -68.70   
   134. D(O  18,C  12,O  11,C  10)    106.87 -0.002524    0.40    107.27   
   135. D(O  13,C  12,O  11,C  10)   -180.00 -0.002566    0.35   -179.65   
   136. D(C   2,C  12,O  11,O  18)   -106.87  0.001023   -0.16   -107.03   
   137. D(C   2,C  12,O  11,C  10)      0.00 -0.001501    0.24      0.24   
   138. D(O  13,C  12,C   2,C   3)    180.00  0.001180   -0.18    179.82   
   139. D(O  13,C  12,C   2,C   1)     -0.00  0.000816   -0.14     -0.14   
   140. D(O  11,C  12,C   2,C   3)     -0.00  0.000111   -0.07     -0.07   
   141. D(O  11,C  12,C   2,C   1)    180.00 -0.000253   -0.03    179.97   
   142. D(O  13,C  12,O  11,O  18)     73.13 -0.000042   -0.05     73.08   
   143. D(O  18,C  12,C   2,C   3)    -70.02  0.001727   -0.44    -70.46   
   144. D(O  18,C  12,C   2,C   1)    109.98  0.001363   -0.40    109.58   
   145. D(H  20,O  18,C   9,H  17)     83.57  0.000469   -0.94     82.63   
   146. D(H  20,O  18,C   9,C  10)    -41.42  0.001080   -1.07    -42.48   
   147. D(H  20,O  18,C   9,C   7)   -164.23 -0.001744   -0.22   -164.45   
   148. D(H  19,O  18,C   9,H  17)   -179.29  0.000545   -0.19   -179.48   
   149. D(H  19,O  18,C   9,C  10)     55.73  0.001156   -0.32     55.41   
   150. D(C  10,O  18,C   9,C   7)   -122.82 -0.002824    0.84   -121.97   
   151. D(H  19,O  18,C   9,C   7)    -67.09 -0.001669    0.52    -66.57   
   152. D(O  11,O  18,C  12,O  13)   -125.05 -0.001828    0.98   -124.08   
   153. D(O  11,O  18,C  12,C   2)    108.14 -0.001064    0.14    108.28   
   154. D(C  10,O  18,C  12,O  11)    -29.53 -0.001007    0.36    -29.18   
   155. D(C  10,O  18,C  12,C   2)     78.61 -0.002071    0.50     79.10   
   156. D(C   9,O  18,C  12,O  13)   -143.25 -0.002300    1.54   -141.70   
   157. D(C   9,O  18,C  12,O  11)    -18.19 -0.000472    0.57    -17.63   
   158. D(C   9,O  18,C  12,C   2)     89.95 -0.001536    0.71     90.65   
   159. D(H  20,O  18,C  12,O  13)      4.00 -0.002750    0.77      4.77   
   160. D(H  20,O  18,C  12,O  11)    129.05 -0.000922   -0.21    128.85   
   161. D(H  19,O  18,C  12,O  13)     88.77 -0.003101    1.69     90.46   
   162. D(H  19,O  18,C  12,O  11)   -146.18 -0.001272    0.71   -145.46   
   163. D(H  19,O  18,C  12,C   2)    -38.04 -0.002336    0.85    -37.19   
   164. D(C  10,O  18,O  11,C  12)    124.70 -0.001225    0.48    125.18   
   165. D(C   9,O  18,O  11,C  12)    153.48 -0.000112    0.75    154.23   
   166. D(C   9,O  18,O  11,C  10)     28.78  0.001114    0.26     29.04   
   167. D(H  20,O  18,O  11,C  10)   -166.54  0.001778   -0.88   -167.42   
   168. D(H  19,O  18,O  11,C  12)     38.33 -0.001339    0.79     39.13   
   169. D(H  19,O  18,O  11,C  10)    -86.37 -0.000114    0.31    -86.06   
   170. D(C  12,O  18,C  10,O  11)     27.21  0.000572   -0.19     27.03   
   171. D(C  12,O  18,C  10,C   9)    150.93  0.000169   -0.60    150.33   
   172. D(C  12,O  18,C  10,C   4)    -87.46  0.003949   -0.92    -88.38   
   173. D(O  11,O  18,C  10,C   9)    123.71 -0.000403   -0.41    123.30   
   174. D(H  20,O  18,O  11,C  12)    -41.84  0.000553   -0.40    -42.24   
   175. D(O  11,O  18,C  10,C   4)   -114.67  0.003377   -0.73   -115.40   
   176. D(C   9,O  18,C  10,O  11)   -123.71  0.000403    0.41   -123.30   
   177. D(C   9,O  18,C  10,C   4)    121.61  0.003779   -0.32    121.29   
   178. D(C  12,O  18,O  11,C  10)   -124.70  0.001225   -0.48   -125.18   
   179. D(H  20,O  18,C  10,O  11)     11.56  0.001307   -0.72     10.84   
   180. D(H  20,O  18,C  10,C   9)    135.27  0.000904   -1.13    134.14   
   181. D(H  20,O  18,C  10,C   4)   -103.12  0.004683   -1.45   -104.56   
   182. D(H  20,O  18,C  12,C   2)   -122.81 -0.001986   -0.06   -122.87   
   183. D(H  19,O  18,C  10,O  11)    103.36  0.000425    0.19    103.55   
   184. D(H  19,O  18,C  10,C   9)   -132.92  0.000023   -0.22   -133.14   
   185. D(H  19,O  18,C  10,C   4)    -11.31  0.003802   -0.54    -11.85   
   186. D(C  12,O  18,C   9,H  17)    105.65 -0.000349   -0.23    105.42   
   187. D(C  12,O  18,C   9,C  10)    -19.33  0.000262   -0.36    -19.70   
   188. D(C  12,O  18,C   9,C   7)   -142.15 -0.002563    0.48   -141.67   
   189. D(O  11,O  18,C   9,H  17)     95.91 -0.000357    0.03     95.94   
   190. D(C  10,O  18,C  12,O  13)   -154.59 -0.002835    1.33   -153.26   
   191. D(O  11,O  18,C   9,C  10)    -29.07  0.000254   -0.10    -29.17   
   192. D(O  11,O  18,C   9,C   7)   -151.89 -0.002571    0.75   -151.14   
   193. D(C  10,O  18,C   9,H  17)    124.98 -0.000611    0.13    125.11   
    ----------------------------------------------------------------------------

Time needed for optimization step       :     1.42 sec

         *************************************************************
         *                GEOMETRY OPTIMIZATION CYCLE   2            *
         *************************************************************
---------------------------------
CARTESIAN COORDINATES (ANGSTROEM)
---------------------------------
  N    -0.940138   -4.653085   -0.272796
  C    -0.790125   -3.542604   -0.033486
  C    -0.574396   -2.163897    0.196406
  C     0.014870   -1.391351   -0.745790
  C     0.217371    0.001173   -0.489743
  C     0.816041    0.857495   -1.427541
  C     0.984245    2.187760   -1.132977
  C     0.568231    2.757766    0.115784
  O     0.724917    3.971868    0.372109
  C    -0.036637    1.857335    1.047768
  C    -0.201523    0.525708    0.745237
  O    -0.798699   -0.272683    1.700873
  C    -1.013248   -1.604525    1.491230
  O    -1.542747   -2.271878    2.343922
  H     0.339207   -1.789899   -1.697555
  H     1.149548    0.489990   -2.385298
  H     1.446441    2.837233   -1.865075
  H    -0.369918    2.234429    2.004962
  O     3.124067   -0.083446    5.143263
  H     3.888210   -0.667354    5.143375
  H     2.364266   -0.673150    5.146848

----------------------------
CARTESIAN COORDINATES (A.U.)
----------------------------
  NO LB    ZA    FRAG    MASS        X           Y           Z
   0 N   7.0000    0    14.007   -1.776604   -8.793057   -0.515509
   1 C   6.0000    0    12.011   -1.493119   -6.694551   -0.063279
   2 C   6.0000    0    12.011   -1.085450   -4.089173    0.371153
   3 C   6.0000    0    12.011    0.028100   -2.629272   -1.409338
   4 C   6.0000    0    12.011    0.410771    0.002216   -0.925480
   5 C   6.0000    0    12.011    1.542094    1.620431   -2.697662
   6 C   6.0000    0    12.011    1.859954    4.134267   -2.141016
   7 C   6.0000    0    12.011    1.073800    5.211423    0.218800
   8 O   8.0000    0    15.999    1.369895    7.505743    0.703184
   9 C   6.0000    0    12.011   -0.069234    3.509855    1.979994
  10 C   6.0000    0    12.011   -0.380824    0.993445    1.408294
  11 O   8.0000    0    15.999   -1.509323   -0.515296    3.214183
  12 C   6.0000    0    12.011   -1.914761   -3.032112    2.818015
  13 O   8.0000    0    15.999   -2.915369   -4.293228    4.429370
  14 H   1.0000    0     1.008    0.641008   -3.382420   -3.207915
  15 H   1.0000    0     1.008    2.172332    0.925946   -4.507560
  16 H   1.0000    0     1.008    2.733378    5.361592   -3.524481
  17 H   1.0000    0     1.008   -0.699044    4.222459    3.788830
  18 O   8.0000    0    15.999    5.903631   -0.157690    9.719359
  19 H   1.0000    0     1.008    7.347652   -1.261117    9.719570
  20 H   1.0000    0     1.008    4.467815   -1.272070    9.726134

      -----------------------------------------------------------      
     |                   =====================                   |     
     |                           x T B                           |     
     |                   =====================                   |     
     |                         S. Grimme                         |     
     |          Mulliken Center for Theoretical Chemistry        |     
     |                    University of Bonn                     |     
      -----------------------------------------------------------      

   * xtb version 6.6.1 (8d0f1dd) compiled by 'stahn@M-Bot' on 2023-08-01

   xtb is free software: you can redistribute it and/or modify it under
   the terms of the GNU Lesser General Public License as published by
   the Free Software Foundation, either version 3 of the License, or
   (at your option) any later version.
   
   xtb is distributed in the hope that it will be useful,
   but WITHOUT ANY WARRANTY; without even the implied warranty of
   MERCHANTABILITY or FITNESS FOR A PARTICULAR PURPOSE.  See the
   GNU Lesser General Public License for more details.
   
   Cite this work as:
   * C. Bannwarth, E. Caldeweyher, S. Ehlert, A. Hansen, P. Pracht,
     J. Seibert, S. Spicher, S. Grimme, WIREs Comput. Mol. Sci., 2020, 11,
     e01493. DOI: 10.1002/wcms.1493
   
   for GFN2-xTB:
   * C. Bannwarth, S. Ehlert and S. Grimme., J. Chem. Theory Comput., 2019,
     15, 1652-1671. DOI: 10.1021/acs.jctc.8b01176
   for GFN1-xTB:
   * S. Grimme, C. Bannwarth, P. Shushkov, J. Chem. Theory Comput., 2017,
     13, 1989-2009. DOI: 10.1021/acs.jctc.7b00118
   for GFN0-xTB:
   * P. Pracht, E. Caldeweyher, S. Ehlert, S. Grimme, ChemRxiv, 2019, preprint.
     DOI: 10.26434/chemrxiv.8326202.v1
   for GFN-FF:
   * S. Spicher and S. Grimme, Angew. Chem. Int. Ed., 2020, 59, 15665-15673.
     DOI: 10.1002/anie.202004239
   
   for ALPB and GBSA implicit solvation:
   * S. Ehlert, M. Stahn, S. Spicher, S. Grimme, J. Chem. Theory Comput.,
     2021, 17, 4250-4261. DOI: 10.1021/acs.jctc.1c00471
   
   for DFT-D4:
   * E. Caldeweyher, C. Bannwarth and S. Grimme, J. Chem. Phys., 2017,
     147, 034112. DOI: 10.1063/1.4993215
   * E. Caldeweyher, S. Ehlert, A. Hansen, H. Neugebauer, S. Spicher,
     C. Bannwarth and S. Grimme, J. Chem. Phys., 2019, 150, 154122.
     DOI: 10.1063/1.5090222
   * E. Caldeweyher, J.-M. Mewes, S. Ehlert and S. Grimme, Phys. Chem. Chem. Phys.
     2020, 22, 8499-8512. DOI: 10.1039/D0CP00502A
   
   for sTDA-xTB:
   * S. Grimme and C. Bannwarth, J. Chem. Phys., 2016, 145, 054103.
     DOI: 10.1063/1.4959605
   
   in the mass-spec context:
   * V. Asgeirsson, C. Bauer and S. Grimme, Chem. Sci., 2017, 8, 4879.
     DOI: 10.1039/c7sc00601b
   * J. Koopman and S. Grimme, ACS Omega 2019, 4, 12, 15120-15133.
     DOI: 10.1021/acsomega.9b02011
   
   for metadynamics refer to:
   * S. Grimme, J. Chem. Theory Comput., 2019, 155, 2847-2862
     DOI: 10.1021/acs.jctc.9b00143
   
   for SPH calculations refer to:
   * S. Spicher and S. Grimme, J. Chem. Theory Comput., 2021, 17, 1701-1714
     DOI: 10.1021/acs.jctc.0c01306
   
   with help from (in alphabetical order)
   P. Atkinson, C. Bannwarth, F. Bohle, G. Brandenburg, E. Caldeweyher
   M. Checinski, S. Dohm, S. Ehlert, S. Ehrlich, I. Gerasimov, C. Hölzer
   A. Katbashev, J. Koopman, C. Lavigne, S. Lehtola, F. März, M. Müller,
   F. Musil, H. Neugebauer, J. Pisarek, C. Plett, P. Pracht, F. Pultar,
   J. Seibert, P. Shushkov, S. Spicher, M. Stahn, M. Steiner, T. Strunk,
   J. Stückrath, T. Rose, and J. Unsleber
   
 * started run on 2025/01/14 at 21:16:28.385     

           -------------------------------------------------
          |                Calculation Setup                |
           -------------------------------------------------

          program call               : /home/jang/cal_tmp/10_orca/orca_5_0_4_linux_x86-64_shared_openmpi411/otool_xtb /home/jang/cal_tmp/10_orca/Gen_chromophore/Gen_molecular_pairs_cal/mol_2_10.xyz/input_XTB.xyz --grad -c 0 -u 0 -P 4 --namespace /home/jang/cal_tmp/10_orca/Gen_chromophore/Gen_molecular_pairs_cal/mol_2_10.xyz/input --input /home/jang/cal_tmp/10_orca/Gen_chromophore/Gen_molecular_pairs_cal/mol_2_10.xyz/input_XTB.input.tmp --acc 1.000000
          hostname                   : node02
          calculation namespace      : /home/jang/cal_tmp/10_orca/Gen_chromophore/Gen_molecular_pairs_cal/mol_2_10.xyz/input
          coordinate file            : /home/jang/cal_tmp/10_orca/Gen_chromophore/Gen_molecular_pairs_cal/mol_2_10.xyz/input_XTB.xyz
          omp threads                :                     4

   ID    Z sym.   atoms
    1    7 N      1
    2    6 C      2-8, 10, 11, 13
    3    8 O      9, 12, 14, 19
    4    1 H      15-18, 20, 21

molecular fragmentation (1/2 indicates fragments):
111111111111111111222
# atoms in fragment 1/2:    18     3
 fragment masses (1/2) :      186.14       18.02
CMA distance (Bohr)    :  11.064
constraining FC (au)   :  0.0500

           -------------------------------------------------
          |                 G F N 2 - x T B                 |
           -------------------------------------------------

        Reference                      10.1021/acs.jctc.8b01176
      * Hamiltonian:
        H0-scaling (s, p, d)           1.850000    2.230000    2.230000
        zeta-weighting                 0.500000
      * Dispersion:
        s8                             2.700000
        a1                             0.520000
        a2                             5.000000
        s9                             5.000000
      * Repulsion:
        kExp                           1.500000    1.000000
        rExp                           1.000000
      * Coulomb:
        alpha                          2.000000
        third order                    shell-resolved
        anisotropic                    true
        a3                             3.000000
        a5                             4.000000
        cn-shift                       1.200000
        cn-exp                         4.000000
        max-rad                        5.000000

q/qsh data taken from xtbrestart
CAMM data taken from xtbrestart

          ...................................................
          :                      SETUP                      :
          :.................................................:
          :  # basis functions                  66          :
          :  # atomic orbitals                  66          :
          :  # shells                           36          :
          :  # electrons                        75          :
          :  max. iterations                   250          :
          :  Hamiltonian                  GFN2-xTB          :
          :  restarted?                       true          :
          :  GBSA solvation                  false          :
          :  PC potential                    false          :
          :  electronic temp.          300.0000000     K    :
          :  accuracy                    1.0000000          :
          :  -> integral cutoff          0.2500000E+02      :
          :  -> integral neglect         0.1000000E-07      :
          :  -> SCF convergence          0.1000000E-05 Eh   :
          :  -> wf. convergence          0.1000000E-03 e    :
          :  Broyden damping             0.4000000          :
          ...................................................

 iter      E             dE          RMSdq      gap      omega  full diag
   1    -44.1346451 -0.441346E+02  0.269E-01    2.22       0.0  T
   2    -44.1349274 -0.282317E-03  0.170E-01    2.22       1.0  T
   3    -44.1349746 -0.471875E-04  0.954E-02    2.22       1.0  T
   4    -44.1349943 -0.197587E-04  0.291E-02    2.21       1.0  T
   5    -44.1350077 -0.133818E-04  0.102E-02    2.22       2.1  T
   6    -44.1350094 -0.171728E-05  0.447E-03    2.22       4.9  T
   7    -44.1350096 -0.157286E-06  0.266E-03    2.22       8.2  T
   8    -44.1350096 -0.476904E-07  0.123E-03    2.22      17.7  T
   9    -44.1350097 -0.178775E-07  0.466E-04    2.22      46.9  T
  10    -44.1350097 -0.302347E-08  0.208E-04    2.22     104.7  T

   *** convergence criteria satisfied after 10 iterations ***

         #    Occupation            Energy/Eh            Energy/eV
      -------------------------------------------------------------
         1        2.0000           -0.7914704             -21.5370
       ...           ...                  ...                  ...
        32        2.0000           -0.4769143             -12.9775
        33        2.0000           -0.4630342             -12.5998
        34        2.0000           -0.4579014             -12.4601
        35        2.0000           -0.4503923             -12.2558
        36        2.0000           -0.4500155             -12.2455
        37        1.9966           -0.4291557             -11.6779
        38        1.0034           -0.4183507             -11.3839 (HOMO)
        39                         -0.3368566              -9.1663 (LUMO)
        40                         -0.2896142              -7.8808
        41                         -0.2655305              -7.2255
        42                         -0.2438469              -6.6354
        43                         -0.2410298              -6.5588
       ...                                ...                  ...
        66                          1.1343948              30.8685
      -------------------------------------------------------------
                  HL-Gap            0.0814942 Eh            2.2176 eV
             Fermi-level           -0.4006785 Eh          -10.9030 eV

 SCC (total)                   0 d,  0 h,  0 min,  0.049 sec
 SCC setup                      ...        0 min,  0.001 sec (  1.047%)
 Dispersion                     ...        0 min,  0.000 sec (  1.004%)
 classical contributions        ...        0 min,  0.000 sec (  0.277%)
 integral evaluation            ...        0 min,  0.004 sec (  7.383%)
 iterations                     ...        0 min,  0.038 sec ( 76.061%)
 molecular gradient             ...        0 min,  0.006 sec ( 12.830%)
 printout                       ...        0 min,  0.001 sec (  1.160%)

         :::::::::::::::::::::::::::::::::::::::::::::::::::::
         ::                     SUMMARY                     ::
         :::::::::::::::::::::::::::::::::::::::::::::::::::::
         :: total energy             -43.541489250985 Eh    ::
         :: gradient norm              0.069679927543 Eh/a0 ::
         :: HOMO-LUMO gap              2.217568889401 eV    ::
         ::.................................................::
         :: SCC energy               -44.135009653751 Eh    ::
         :: -> isotropic ES            0.103345226500 Eh    ::
         :: -> anisotropic ES          0.002152083769 Eh    ::
         :: -> anisotropic XC          0.021670607098 Eh    ::
         :: -> dispersion             -0.018858655259 Eh    ::
         :: repulsion energy           0.593460482705 Eh    ::
         :: add. restraining           0.000000000000 Eh    ::
         :: total charge               0.000000000002 e     ::
         :::::::::::::::::::::::::::::::::::::::::::::::::::::


Property printout bound to 'properties.out'

           -------------------------------------------------
          | TOTAL ENERGY              -43.541489250985 Eh   |
          | GRADIENT NORM               0.069679927543 Eh/α |
          | HOMO-LUMO GAP               2.217568889401 eV   |
           -------------------------------------------------

------------------------------------------------------------------------
 * finished run on 2025/01/14 at 21:16:29.604     
------------------------------------------------------------------------
 total:
 * wall-time:     0 d,  0 h,  0 min,  1.218 sec
 *  cpu-time:     0 d,  0 h,  0 min,  1.381 sec
 * ratio c/w:     1.134 speedup
 SCF:
 * wall-time:     0 d,  0 h,  0 min,  0.050 sec
 *  cpu-time:     0 d,  0 h,  0 min,  0.191 sec
 * ratio c/w:     3.826 speedup


-------------------------   --------------------
FINAL SINGLE POINT ENERGY       -43.541489250980
-------------------------   --------------------

------------------------------------------------------------------------------
                         ORCA GEOMETRY RELAXATION STEP
------------------------------------------------------------------------------

Reading the OPT-File                    .... done
Getting information on internals        .... done
Copying old internal coords+grads       .... done
Making the new internal coordinates     .... (new redundants).... done
Validating the new internal coordinates .... (new redundants).... done
Calculating the B-matrix                .... done
Calculating the G,G- and P matrices     .... done
Transforming gradient to internals      .... done
Projecting the internal gradient        .... done
Number of atoms                         ....  21
Number of internal coordinates          .... 193
Current Energy                          ....   -43.541489251 Eh
Current gradient norm                   ....     0.069679928 Eh/bohr
Maximum allowed component of the step   ....  0.300
Current trust radius                    ....  0.300
Updating the Hessian (BFGS)             .... done
Forming the augmented Hessian           .... done
Diagonalizing the augmented Hessian     .... done
Last element of RFO vector              ....  0.987343800
Lowest eigenvalues of augmented Hessian:
 -0.005090628  0.000130113  0.002458426  0.006034591  0.017453381
Length of the computed step             ....  0.160627448
The final length of the internal step   ....  0.160627448
Converting the step to cartesian space:
 Initial RMS(Int)=    0.0115622167
Transforming coordinates:
 Iter   0:  RMS(Cart)=    0.0186368504 RMS(Int)=    0.7833246948
 Iter   1:  RMS(Cart)=    0.0001379811 RMS(Int)=    0.0000840050
 Iter   2:  RMS(Cart)=    0.0000031262 RMS(Int)=    0.0000018064
 Iter   3:  RMS(Cart)=    0.0000012309 RMS(Int)=    0.0000006945
 Iter   4:  RMS(Cart)=    0.0000006120 RMS(Int)=    0.0000003444
 Iter   5:  RMS(Cart)=    0.0000003036 RMS(Int)=    0.0000001708
 Iter   6:  RMS(Cart)=    0.0000001506 RMS(Int)=    0.0000000847
 Iter   7:  RMS(Cart)=    0.0000000747 RMS(Int)=    0.0000000420
done
Storing new coordinates                 .... done

                                .--------------------.
          ----------------------|Geometry convergence|-------------------------
          Item                value                   Tolerance       Converged
          ---------------------------------------------------------------------
          Energy change      -0.0121040205            0.0000050000      NO
          RMS gradient        0.0029153526            0.0001000000      NO
          MAX gradient        0.0202115269            0.0003000000      NO
          RMS step            0.0115622167            0.0020000000      NO
          MAX step            0.0402951386            0.0040000000      NO
          ........................................................
          Max(Bonds)      0.0213      Max(Angles)    1.32
          Max(Dihed)        1.68      Max(Improp)    0.00
          ---------------------------------------------------------------------

The optimization has not yet converged - more geometry cycles are needed


    ---------------------------------------------------------------------------
                         Redundant Internal Coordinates
                            (Angstroem and degrees)

        Definition                    Value    dE/dq     Step     New-Value
    ----------------------------------------------------------------------------
     1. B(C   1,N   0)                1.1458  0.000234 -0.0014    1.1444   
     2. B(C   2,C   1)                1.4143  0.002143 -0.0035    1.4108   
     3. B(C   3,C   2)                1.3534 -0.008256  0.0122    1.3656   
     4. B(C   4,C   3)                1.4303  0.011760 -0.0174    1.4129   
     5. B(C   5,C   4)                1.4040 -0.009158  0.0124    1.4164   
     6. B(C   6,C   5)                1.3728  0.011772 -0.0186    1.3542   
     7. B(C   7,C   6)                1.4344 -0.013585  0.0208    1.4552   
     8. B(O   8,C   7)                1.2507  0.020212 -0.0208    1.2299   
     9. B(C   9,C   7)                1.4301 -0.012206  0.0191    1.4493   
    10. B(C  10,C   9)                1.3755  0.006175 -0.0094    1.3661   
    11. B(C  10,C   4)                1.4056 -0.011079  0.0153    1.4209   
    12. B(O  11,C  10)                1.3810  0.007647 -0.0213    1.3597   
    13. B(C  12,O  11)                1.3652  0.003044 -0.0105    1.3547   
    14. B(C  12,C   2)                1.4772 -0.000486  0.0010    1.4782   
    15. B(O  13,C  12)                1.2053  0.007981 -0.0084    1.1969   
    16. B(H  14,C   3)                1.0816  0.000408 -0.0011    1.0805   
    17. B(H  15,C   5)                1.0787 -0.000122 -0.0001    1.0786   
    18. B(H  16,C   6)                1.0823  0.001446 -0.0037    1.0786   
    19. B(H  17,C   9)                1.0814  0.001496 -0.0037    1.0778   
    20. B(O  18,C  12)                5.7244  0.000772 -0.0050    5.7194   
    21. B(O  18,O  11)                5.2224 -0.001223  0.0045    5.2270   
    22. B(O  18,C  10)                5.5474  0.000368 -0.0012    5.5461   
    23. B(O  18,C   9)                5.5254  0.000079 -0.0028    5.5226   
    24. B(O  18,H  17)                5.2373 -0.000489 -0.0010    5.2363   
    25. B(H  19,O  18)                0.9617  0.001142 -0.0023    0.9594   
    26. B(H  20,O  13)                5.0673  0.002342 -0.0195    5.0478   
    27. B(H  20,C  12)                5.0635 -0.000870  0.0011    5.0646   
    28. B(H  20,O  11)                4.6946 -0.002529  0.0083    4.7029   
    29. B(H  20,C  10)                5.2340  0.000491  0.0001    5.2341   
    30. B(H  20,C   9)                5.3824  0.001407 -0.0066    5.3758   
    31. B(H  20,O  18)                0.9618  0.001325 -0.0023    0.9596   
[...]
   132. D(C  12,O  11,C  10,O  18)    -62.30 -0.000005   -0.04    -62.34   
   133. D(O  18,O  11,C  10,C   9)   -115.18 -0.000007    0.05   -115.13   
   134. D(O  18,C  12,O  11,C  10)     77.31  0.000007    0.02     77.32   
   135. D(O  13,C  12,O  11,C  10)    177.71  0.000010   -0.02    177.69   
   136. D(C   2,C  12,O  11,O  18)    -80.62  0.000017   -0.02    -80.63   
   137. D(C   2,C  12,O  11,C  10)     -3.31  0.000023   -0.00     -3.31   
   138. D(O  13,C  12,C   2,C   3)   -179.17 -0.000002    0.04   -179.13   
   139. D(O  13,C  12,C   2,C   1)     -0.96  0.000000    0.04     -0.93   
   140. D(O  11,C  12,C   2,C   3)      1.92 -0.000016    0.02      1.94   
   141. D(O  11,C  12,C   2,C   1)   -179.87 -0.000014    0.01   -179.86   
   142. D(O  13,C  12,O  11,O  18)    100.41  0.000003   -0.04    100.37   
   143. D(O  18,C  12,C   2,C   3)    -81.67 -0.000006    0.04    -81.62   
   144. D(O  18,C  12,C   2,C   1)     96.55 -0.000003    0.04     96.59   
   145. D(H  20,O  18,C   9,H  17)     -7.63 -0.000006    0.20     -7.43   
   146. D(H  20,O  18,C   9,C  10)   -129.69 -0.000001    0.21   -129.48   
   147. D(H  20,O  18,C   9,C   7)    129.43 -0.000005    0.17    129.60   
   148. D(H  19,O  18,C   9,H  17)    159.31  0.000007   -0.54    158.78   
   149. D(H  19,O  18,C   9,C  10)     37.26  0.000012   -0.53     36.73   
   150. D(C  10,O  18,C   9,C   7)   -100.88 -0.000004   -0.03   -100.92   
   151. D(H  19,O  18,C   9,C   7)    -63.63  0.000008   -0.56    -64.19   
   152. D(O  11,O  18,C  12,O  13)   -118.80 -0.000000    0.02   -118.78   
   153. D(O  11,O  18,C  12,C   2)    116.86  0.000007    0.01    116.87   
   154. D(C  10,O  18,C  12,O  11)    -27.80 -0.000004   -0.00    -27.80   
   155. D(C  10,O  18,C  12,C   2)     89.07  0.000004    0.01     89.07   
   156. D(C   9,O  18,C  12,O  13)   -134.53 -0.000007    0.02   -134.51   
   157. D(C   9,O  18,C  12,O  11)    -15.72 -0.000007   -0.00    -15.72   
   158. D(C   9,O  18,C  12,C   2)    101.14  0.000000    0.01    101.15   
   159. D(H  20,O  18,C  12,O  13)    -52.22 -0.000002    0.11    -52.11   
   160. D(H  20,O  18,C  12,O  11)     66.59 -0.000002    0.09     66.67   
   161. D(H  19,O  18,C  12,O  13)     57.65 -0.000010   -0.03     57.62   
   162. D(H  19,O  18,C  12,O  11)    176.45 -0.000009   -0.05    176.40   
   163. D(H  19,O  18,C  12,C   2)    -66.68 -0.000002   -0.04    -66.72   
   164. D(C  10,O  18,O  11,C  12)    125.25 -0.000004   -0.00    125.25   
   165. D(C   9,O  18,O  11,C  12)    154.34 -0.000012    0.01    154.34   
   166. D(C   9,O  18,O  11,C  10)     29.09 -0.000008    0.01     29.09   
   167. D(H  20,O  18,O  11,C  10)    122.74  0.000000    0.15    122.89   
   168. D(H  19,O  18,O  11,C  12)     -5.51 -0.000015   -0.06     -5.57   
   169. D(H  19,O  18,O  11,C  10)   -130.76 -0.000011   -0.06   -130.82   
   170. D(C  12,O  18,C  10,O  11)     31.99  0.000002   -0.00     31.99   
   171. D(C  12,O  18,C  10,C   9)    138.83  0.000002    0.02    138.85   
   172. D(C  12,O  18,C  10,C   4)    -96.70  0.000001    0.02    -96.68   
   173. D(O  11,O  18,C  10,C   9)    106.84  0.000001    0.02    106.86   
   174. D(H  20,O  18,O  11,C  12)   -112.01 -0.000004    0.15   -111.86   
   175. D(O  11,O  18,C  10,C   4)   -128.69 -0.000001    0.02   -128.67   
   176. D(C   9,O  18,C  10,O  11)   -106.84 -0.000001   -0.02   -106.86   
   177. D(C   9,O  18,C  10,C   4)    124.46 -0.000001    0.00    124.47   
   178. D(C  12,O  18,O  11,C  10)   -125.25  0.000004    0.00   -125.25   
   179. D(H  20,O  18,C  10,O  11)    -56.58 -0.000000    0.18    -56.41   
   180. D(H  20,O  18,C  10,C   9)     50.26  0.000000    0.20     50.45   
   181. D(H  20,O  18,C  10,C   4)    174.72 -0.000001    0.20    174.92   
   182. D(H  20,O  18,C  12,C   2)   -176.55  0.000005    0.09   -176.45   
   183. D(H  19,O  18,C  10,O  11)     89.22  0.000004   -0.23     88.98   
   184. D(H  19,O  18,C  10,C   9)   -163.94  0.000004   -0.22   -164.16   
   185. D(H  19,O  18,C  10,C   4)    -39.48  0.000003   -0.21    -39.69   
   186. D(C  12,O  18,C   9,H  17)     88.42 -0.000006    0.01     88.43   
   187. D(C  12,O  18,C   9,C  10)    -33.63 -0.000000    0.02    -33.61   
   188. D(C  12,O  18,C   9,C   7)   -134.52 -0.000004   -0.01   -134.53   
   189. D(O  11,O  18,C   9,H  17)     74.75 -0.000012    0.02     74.77   
   190. D(C  10,O  18,C  12,O  13)   -146.60 -0.000004    0.02   -146.58   
   191. D(O  11,O  18,C   9,C  10)    -47.31 -0.000007    0.03    -47.28   
   192. D(O  11,O  18,C   9,C   7)   -148.19 -0.000011   -0.01   -148.20   
   193. D(C  10,O  18,C   9,H  17)    122.06 -0.000005   -0.01    122.05   
    ----------------------------------------------------------------------------
                 *******************************************************
                 *** FINAL ENERGY EVALUATION AT THE STATIONARY POINT ***
                 ***               (AFTER   74 CYCLES)               ***
                 *******************************************************
---------------------------------
CARTESIAN COORDINATES (ANGSTROEM)
---------------------------------
  N    -0.119058   -4.564485    0.979877
  C    -0.138552   -3.417711    0.962302
  C    -0.134102   -2.011803    0.918043
  C     0.370361   -1.334158   -0.160310
  C     0.396385    0.071041   -0.158219
  C     0.926150    0.835809   -1.231443
  C     0.941964    2.186838   -1.188354
  C     0.415274    2.926040   -0.039841
  O     0.427587    4.152826    0.003161
  C    -0.120855    2.118906    1.042934
  C    -0.125411    0.753627    0.979189
  O    -0.643669    0.066818    2.025065
  C    -0.656641   -1.292336    2.095384
  O    -1.099505   -1.815500    3.080964
  H     0.762273   -1.876634   -1.009880
  H     1.319097    0.300983   -2.084393
  H     1.344284    2.776309   -1.998030
  H    -0.518192    2.626497    1.907957
  O     1.923615   -1.166515    2.741870
  H     2.369272   -1.990523    2.954457
  H     1.729709   -0.739144    3.580782

----------------------------
CARTESIAN COORDINATES (A.U.)
----------------------------
  NO LB    ZA    FRAG    MASS        X           Y           Z
   0 N   7.0000    0    14.007   -0.224987   -8.625626    1.851700
   1 C   6.0000    0    12.011   -0.261825   -6.458539    1.818487
   2 C   6.0000    0    12.011   -0.253416   -3.801758    1.734850
   3 C   6.0000    0    12.011    0.699881   -2.521193   -0.302942
   4 C   6.0000    0    12.011    0.749059    0.134247   -0.298991
   5 C   6.0000    0    12.011    1.750170    1.579450   -2.327090
   6 C   6.0000    0    12.011    1.780053    4.132524   -2.245664
   7 C   6.0000    0    12.011    0.784753    5.529414   -0.075289
   8 O   8.0000    0    15.999    0.808022    7.847704    0.005973
   9 C   6.0000    0    12.011   -0.228384    4.004153    1.970860
  10 C   6.0000    0    12.011   -0.236993    1.424149    1.850400
  11 O   8.0000    0    15.999   -1.216359    0.126268    3.826819
  12 C   6.0000    0    12.011   -1.240872   -2.442162    3.959702
  13 O   8.0000    0    15.999   -2.077764   -3.430797    5.822179
  14 H   1.0000    0     1.008    1.440486   -3.546324   -1.908397
  15 H   1.0000    0     1.008    2.492733    0.568776   -3.938932
  16 H   1.0000    0     1.008    2.540329    5.246463   -3.775729
  17 H   1.0000    0     1.008   -0.979242    4.963359    3.605516
  18 O   8.0000    0    15.999    3.635105   -2.204394    5.181383
  19 H   1.0000    0     1.008    4.477275   -3.761543    5.583115
  20 H   1.0000    0     1.008    3.268675   -1.396780    6.766698

      -----------------------------------------------------------      
     |                   =====================                   |     
     |                           x T B                           |     
     |                   =====================                   |     
     |                         S. Grimme                         |     
     |          Mulliken Center for Theoretical Chemistry        |     
     |                    University of Bonn                     |     
      -----------------------------------------------------------      

   * xtb version 6.6.1 (8d0f1dd) compiled by 'stahn@M-Bot' on 2023-08-01

   xtb is free software: you can redistribute it and/or modify it under
   the terms of the GNU Lesser General Public License as published by
   the Free Software Foundation, either version 3 of the License, or
   (at your option) any later version.
   
   xtb is distributed in the hope that it will be useful,
   but WITHOUT ANY WARRANTY; without even the implied warranty of
   MERCHANTABILITY or FITNESS FOR A PARTICULAR PURPOSE.  See the
   GNU Lesser General Public License for more details.
   
   Cite this work as:
   * C. Bannwarth, E. Caldeweyher, S. Ehlert, A. Hansen, P. Pracht,
     J. Seibert, S. Spicher, S. Grimme, WIREs Comput. Mol. Sci., 2020, 11,
     e01493. DOI: 10.1002/wcms.1493
   
   for GFN2-xTB:
   * C. Bannwarth, S. Ehlert and S. Grimme., J. Chem. Theory Comput., 2019,
     15, 1652-1671. DOI: 10.1021/acs.jctc.8b01176
   for GFN1-xTB:
   * S. Grimme, C. Bannwarth, P. Shushkov, J. Chem. Theory Comput., 2017,
     13, 1989-2009. DOI: 10.1021/acs.jctc.7b00118
   for GFN0-xTB:
   * P. Pracht, E. Caldeweyher, S. Ehlert, S. Grimme, ChemRxiv, 2019, preprint.
     DOI: 10.26434/chemrxiv.8326202.v1
   for GFN-FF:
   * S. Spicher and S. Grimme, Angew. Chem. Int. Ed., 2020, 59, 15665-15673.
     DOI: 10.1002/anie.202004239
   
   for ALPB and GBSA implicit solvation:
   * S. Ehlert, M. Stahn, S. Spicher, S. Grimme, J. Chem. Theory Comput.,
     2021, 17, 4250-4261. DOI: 10.1021/acs.jctc.1c00471
   
   for DFT-D4:
   * E. Caldeweyher, C. Bannwarth and S. Grimme, J. Chem. Phys., 2017,
     147, 034112. DOI: 10.1063/1.4993215
   * E. Caldeweyher, S. Ehlert, A. Hansen, H. Neugebauer, S. Spicher,
     C. Bannwarth and S. Grimme, J. Chem. Phys., 2019, 150, 154122.
     DOI: 10.1063/1.5090222
   * E. Caldeweyher, J.-M. Mewes, S. Ehlert and S. Grimme, Phys. Chem. Chem. Phys.
     2020, 22, 8499-8512. DOI: 10.1039/D0CP00502A
   
   for sTDA-xTB:
   * S. Grimme and C. Bannwarth, J. Chem. Phys., 2016, 145, 054103.
     DOI: 10.1063/1.4959605
   
   in the mass-spec context:
   * V. Asgeirsson, C. Bauer and S. Grimme, Chem. Sci., 2017, 8, 4879.
     DOI: 10.1039/c7sc00601b
   * J. Koopman and S. Grimme, ACS Omega 2019, 4, 12, 15120-15133.
     DOI: 10.1021/acsomega.9b02011
   
   for metadynamics refer to:
   * S. Grimme, J. Chem. Theory Comput., 2019, 155, 2847-2862
     DOI: 10.1021/acs.jctc.9b00143
   
   for SPH calculations refer to:
   * S. Spicher and S. Grimme, J. Chem. Theory Comput., 2021, 17, 1701-1714
     DOI: 10.1021/acs.jctc.0c01306
   
   with help from (in alphabetical order)
   P. Atkinson, C. Bannwarth, F. Bohle, G. Brandenburg, E. Caldeweyher
   M. Checinski, S. Dohm, S. Ehlert, S. Ehrlich, I. Gerasimov, C. Hölzer
   A. Katbashev, J. Koopman, C. Lavigne, S. Lehtola, F. März, M. Müller,
   F. Musil, H. Neugebauer, J. Pisarek, C. Plett, P. Pracht, F. Pultar,
   J. Seibert, P. Shushkov, S. Spicher, M. Stahn, M. Steiner, T. Strunk,
   J. Stückrath, T. Rose, and J. Unsleber
   
 * started run on 2025/01/14 at 21:26:57.996     

           -------------------------------------------------
          |                Calculation Setup                |
           -------------------------------------------------

          program call               : /home/jang/cal_tmp/10_orca/orca_5_0_4_linux_x86-64_shared_openmpi411/otool_xtb /home/jang/cal_tmp/10_orca/Gen_chromophore/Gen_molecular_pairs_cal/mol_2_10.xyz/input_XTB.xyz --grad -c 0 -u 0 -P 4 --namespace /home/jang/cal_tmp/10_orca/Gen_chromophore/Gen_molecular_pairs_cal/mol_2_10.xyz/input --input /home/jang/cal_tmp/10_orca/Gen_chromophore/Gen_molecular_pairs_cal/mol_2_10.xyz/input_XTB.input.tmp --acc 1.000000
          hostname                   : node02
          calculation namespace      : /home/jang/cal_tmp/10_orca/Gen_chromophore/Gen_molecular_pairs_cal/mol_2_10.xyz/input
          coordinate file            : /home/jang/cal_tmp/10_orca/Gen_chromophore/Gen_molecular_pairs_cal/mol_2_10.xyz/input_XTB.xyz
          omp threads                :                     4

   ID    Z sym.   atoms
    1    7 N      1
    2    6 C      2-8, 10, 11, 13
    3    8 O      9, 12, 14, 19
    4    1 H      15-18, 20, 21

molecular fragmentation (1/2 indicates fragments):
111111111111111111222
# atoms in fragment 1/2:    18     3
 fragment masses (1/2) :      186.14       18.02
CMA distance (Bohr)    :   5.783
constraining FC (au)   :  0.0500

           -------------------------------------------------
          |                 G F N 2 - x T B                 |
           -------------------------------------------------

        Reference                      10.1021/acs.jctc.8b01176
      * Hamiltonian:
        H0-scaling (s, p, d)           1.850000    2.230000    2.230000
        zeta-weighting                 0.500000
      * Dispersion:
        s8                             2.700000
        a1                             0.520000
        a2                             5.000000
        s9                             5.000000
      * Repulsion:
        kExp                           1.500000    1.000000
        rExp                           1.000000
      * Coulomb:
        alpha                          2.000000
        third order                    shell-resolved
        anisotropic                    true
        a3                             3.000000
        a5                             4.000000
        cn-shift                       1.200000
        cn-exp                         4.000000
        max-rad                        5.000000

q/qsh data taken from xtbrestart
CAMM data taken from xtbrestart

          ...................................................
          :                      SETUP                      :
          :.................................................:
          :  # basis functions                  66          :
          :  # atomic orbitals                  66          :
          :  # shells                           36          :
          :  # electrons                        75          :
          :  max. iterations                   250          :
          :  Hamiltonian                  GFN2-xTB          :
          :  restarted?                       true          :
          :  GBSA solvation                  false          :
          :  PC potential                    false          :
          :  electronic temp.          300.0000000     K    :
          :  accuracy                    1.0000000          :
          :  -> integral cutoff          0.2500000E+02      :
          :  -> integral neglect         0.1000000E-07      :
          :  -> SCF convergence          0.1000000E-05 Eh   :
          :  -> wf. convergence          0.1000000E-03 e    :
          :  Broyden damping             0.4000000          :
          ...................................................

 iter      E             dE          RMSdq      gap      omega  full diag
   1    -44.1515057 -0.441515E+02  0.504E-03    2.23       0.0  T
   2    -44.1515057  0.102997E-07  0.322E-03    2.23       6.8  T
   3    -44.1515056  0.973553E-07  0.279E-03    2.23       7.8  T
   4    -44.1515058 -0.165742E-06  0.416E-04    2.23      52.5  T
   5    -44.1515058 -0.266463E-08  0.188E-04    2.23     116.2  T

   *** convergence criteria satisfied after 5 iterations ***

         #    Occupation            Energy/Eh            Energy/eV
      -------------------------------------------------------------
         1        2.0000           -0.7821290             -21.2828
       ...           ...                  ...                  ...
        32        2.0000           -0.4741877             -12.9033
        33        2.0000           -0.4658523             -12.6765
        34        2.0000           -0.4548620             -12.3774
        35        2.0000           -0.4467911             -12.1578
        36        2.0000           -0.4400482             -11.9743
        37        1.9991           -0.4198292             -11.4241
        38        1.0009           -0.4064833             -11.0610 (HOMO)
        39                         -0.3244428              -8.8285 (LUMO)
        40                         -0.2763851              -7.5208
        41                         -0.2507405              -6.8230
        42                         -0.2355030              -6.4084
        43                         -0.2310470              -6.2871
       ...                                ...                  ...
        66                          1.1461951              31.1896
      -------------------------------------------------------------
                  HL-Gap            0.0820405 Eh            2.2324 eV
             Fermi-level           -0.3893096 Eh          -10.5937 eV

 SCC (total)                   0 d,  0 h,  0 min,  0.038 sec
 SCC setup                      ...        0 min,  0.000 sec (  0.805%)
 Dispersion                     ...        0 min,  0.000 sec (  0.902%)
 classical contributions        ...        0 min,  0.000 sec (  0.263%)
 integral evaluation            ...        0 min,  0.002 sec (  5.881%)
 iterations                     ...        0 min,  0.031 sec ( 79.402%)
 molecular gradient             ...        0 min,  0.004 sec ( 11.396%)
 printout                       ...        0 min,  0.000 sec (  1.128%)

         :::::::::::::::::::::::::::::::::::::::::::::::::::::
         ::                     SUMMARY                     ::
         :::::::::::::::::::::::::::::::::::::::::::::::::::::
         :: total energy             -43.553995320141 Eh    ::
         :: gradient norm              0.000306393056 Eh/a0 ::
         :: HOMO-LUMO gap              2.232434732666 eV    ::
         ::.................................................::
         :: SCC energy               -44.151505797140 Eh    ::
         :: -> isotropic ES            0.103047914845 Eh    ::
         :: -> anisotropic ES         -0.000590813376 Eh    ::
         :: -> anisotropic XC          0.021251003261 Eh    ::
         :: -> dispersion             -0.021565668577 Eh    ::
         :: repulsion energy           0.597409688024 Eh    ::
         :: add. restraining           0.000000000000 Eh    ::
         :: total charge               0.000000000001 e     ::
         :::::::::::::::::::::::::::::::::::::::::::::::::::::


Property printout bound to 'properties.out'

           -------------------------------------------------
          | TOTAL ENERGY              -43.553995320141 Eh   |
          | GRADIENT NORM               0.000306393056 Eh/α |
          | HOMO-LUMO GAP               2.232434732666 eV   |
           -------------------------------------------------

------------------------------------------------------------------------
 * finished run on 2025/01/14 at 21:26:58.950     
------------------------------------------------------------------------
 total:
 * wall-time:     0 d,  0 h,  0 min,  0.953 sec
 *  cpu-time:     0 d,  0 h,  0 min,  0.856 sec
 * ratio c/w:     0.898 speedup
 SCF:
 * wall-time:     0 d,  0 h,  0 min,  0.039 sec
 *  cpu-time:     0 d,  0 h,  0 min,  0.140 sec
 * ratio c/w:     3.614 speedup


-------------------------   --------------------
FINAL SINGLE POINT ENERGY       -43.553995320140
-------------------------   --------------------

                                *** OPTIMIZATION RUN DONE ***

Timings for individual modules:

Sum of individual times         ...      178.049 sec (=   2.967 min)
Geometry relaxation             ...       59.329 sec (=   0.989 min)  33.3 %
XTB module                      ...      118.720 sec (=   1.979 min)  66.7 %
                             ****ORCA TERMINATED NORMALLY****
TOTAL RUN TIME: 0 days 0 hours 11 minutes 0 seconds 436 msec
