
                                 *****************
                                 * O   R   C   A *
                                 *****************

                                            #,                                       
                                            ###                                      
                                            ####                                     
                                            #####                                    
                                            ######                                   
                                           ########,                                 
                                     ,,################,,,,,                         
                               ,,#################################,,                 
                          ,,##########################################,,             
                       ,#########################################, ''#####,          
                    ,#############################################,,   '####,        
                  ,##################################################,,,,####,       
                ,###########''''           ''''###############################       
              ,#####''   ,,,,##########,,,,          '''####'''          '####       
            ,##' ,,,,###########################,,,                        '##       
           ' ,,###''''                  '''############,,,                           
         ,,##''                                '''############,,,,        ,,,,,,###''
      ,#''                                            '''#######################'''  
     '                                                          ''''####''''         
             ,#######,   #######,   ,#######,      ##                                
            ,#'     '#,  ##    ##  ,#'     '#,    #''#        ######   ,####,        
            ##       ##  ##   ,#'  ##            #'  '#       #        #'  '#        
            ##       ##  #######   ##           ,######,      #####,   #    #        
            '#,     ,#'  ##    ##  '#,     ,#' ,#      #,         ##   #,  ,#        
             '#######'   ##     ##  '#######'  #'      '#     #####' # '####'        



                  #######################################################
                  #                        -***-                        #
                  #          Department of theory and spectroscopy      #
                  #    Directorship and core code : Frank Neese         #
                  #        Max Planck Institute fuer Kohlenforschung    #
                  #                Kaiser Wilhelm Platz 1               #
                  #                 D-45470 Muelheim/Ruhr               #
                  #                      Germany                        #
                  #                                                     #
                  #                  All rights reserved                #
                  #                        -***-                        #
                  #######################################################


                         Program Version 5.0.4 -  RELEASE  -


 With contributions from (in alphabetic order):
   Daniel Aravena         : Magnetic Suceptibility
   Michael Atanasov       : Ab Initio Ligand Field Theory (pilot matlab implementation)
   Alexander A. Auer      : GIAO ZORA, VPT2 properties, NMR spectrum
   Ute Becker             : Parallelization
   Giovanni Bistoni       : ED, misc. LED, open-shell LED, HFLD
   Martin Brehm           : Molecular dynamics
   Dmytro Bykov           : SCF Hessian
   Vijay G. Chilkuri      : MRCI spin determinant printing, contributions to CSF-ICE
   Dipayan Datta          : RHF DLPNO-CCSD density
   Achintya Kumar Dutta   : EOM-CC, STEOM-CC
   Dmitry Ganyushin       : Spin-Orbit,Spin-Spin,Magnetic field MRCI
   Miquel Garcia          : C-PCM and meta-GGA Hessian, CC/C-PCM, Gaussian charge scheme
   Yang Guo               : DLPNO-NEVPT2, F12-NEVPT2, CIM, IAO-localization
   Andreas Hansen         : Spin unrestricted coupled pair/coupled cluster methods
   Benjamin Helmich-Paris : MC-RPA, TRAH-SCF, COSX integrals
   Lee Huntington         : MR-EOM, pCC
   Robert Izsak           : Overlap fitted RIJCOSX, COSX-SCS-MP3, EOM
   Marcus Kettner         : VPT2
   Christian Kollmar      : KDIIS, OOCD, Brueckner-CCSD(T), CCSD density, CASPT2, CASPT2-K
   Simone Kossmann        : Meta GGA functionals, TD-DFT gradient, OOMP2, MP2 Hessian
   Martin Krupicka        : Initial AUTO-CI
   Lucas Lang             : DCDCAS
   Marvin Lechner         : AUTO-CI (C++ implementation), FIC-MRCC
   Dagmar Lenk            : GEPOL surface, SMD
   Dimitrios Liakos       : Extrapolation schemes; Compound Job, initial MDCI parallelization
   Dimitrios Manganas     : Further ROCIS development; embedding schemes
   Dimitrios Pantazis     : SARC Basis sets
   Anastasios Papadopoulos: AUTO-CI, single reference methods and gradients
   Taras Petrenko         : DFT Hessian,TD-DFT gradient, ASA, ECA, R-Raman, ABS, FL, XAS/XES, NRVS
   Peter Pinski           : DLPNO-MP2, DLPNO-MP2 Gradient
   Christoph Reimann      : Effective Core Potentials
   Marius Retegan         : Local ZFS, SOC
   Christoph Riplinger    : Optimizer, TS searches, QM/MM, DLPNO-CCSD(T), (RO)-DLPNO pert. Triples
   Tobias Risthaus        : Range-separated hybrids, TD-DFT gradient, RPA, STAB
   Michael Roemelt        : Original ROCIS implementation
   Masaaki Saitow         : Open-shell DLPNO-CCSD energy and density
   Barbara Sandhoefer     : DKH picture change effects
   Avijit Sen             : IP-ROCIS
   Kantharuban Sivalingam : CASSCF convergence, NEVPT2, FIC-MRCI
   Bernardo de Souza      : ESD, SOC TD-DFT
   Georgi Stoychev        : AutoAux, RI-MP2 NMR, DLPNO-MP2 response
   Willem Van den Heuvel  : Paramagnetic NMR
   Boris Wezisla          : Elementary symmetry handling
   Frank Wennmohs         : Technical directorship


 We gratefully acknowledge several colleagues who have allowed us to
 interface, adapt or use parts of their codes:
   Stefan Grimme, W. Hujo, H. Kruse, P. Pracht,  : VdW corrections, initial TS optimization,
                  C. Bannwarth, S. Ehlert          DFT functionals, gCP, sTDA/sTD-DF
   Ed Valeev, F. Pavosevic, A. Kumar             : LibInt (2-el integral package), F12 methods
   Garnet Chan, S. Sharma, J. Yang, R. Olivares  : DMRG
   Ulf Ekstrom                                   : XCFun DFT Library
   Mihaly Kallay                                 : mrcc  (arbitrary order and MRCC methods)
   Jiri Pittner, Ondrej Demel                    : Mk-CCSD
   Frank Weinhold                                : gennbo (NPA and NBO analysis)
   Christopher J. Cramer and Donald G. Truhlar   : smd solvation model
   Lars Goerigk                                  : TD-DFT with DH, B97 family of functionals
   V. Asgeirsson, H. Jonsson                     : NEB implementation
   FAccTs GmbH                                   : IRC, NEB, NEB-TS, DLPNO-Multilevel, CI-OPT
                                                   MM, QMMM, 2- and 3-layer-ONIOM, Crystal-QMMM,
                                                   LR-CPCM, SF, NACMEs, symmetry and pop. for TD-DFT,
                                                   nearIR, NL-DFT gradient (VV10), updates on ESD,
                                                   ML-optimized integration grids
   S Lehtola, MJT Oliveira, MAL Marques          : LibXC Library
   Liviu Ungur et al                             : ANISO software


 Your calculation uses the libint2 library for the computation of 2-el integrals
 For citations please refer to: http://libint.valeyev.net

 Your ORCA version has been built with support for libXC version: 5.1.0
 For citations please refer to: https://tddft.org/programs/libxc/

 This ORCA versions uses:
   CBLAS   interface :  Fast vector & matrix operations
   LAPACKE interface :  Fast linear algebra routines
   SCALAPACK package :  Parallel linear algebra routines
   Shared memory     :  Shared parallel matrices
   BLAS/LAPACK       :  OpenBLAS 0.3.15  USE64BITINT DYNAMIC_ARCH NO_AFFINITY SkylakeX SINGLE_THREADED
        Core in use  :  SkylakeX
   Copyright (c) 2011-2014, The OpenBLAS Project




***************************************
The coordinates will be read from file: mol.xyz
***************************************


Your calculation utilizes the atom-pairwise dispersion correction
with the Becke-Johnson damping scheme (D3BJ)
Cite in your paper:
S.Grimme, S.Ehrlich, L.Goerigk, J Comput Chem, (2011), 32, 1456–1465 
S.Grimme, J.Antony, S.Ehrlich and H.Krieg, J.Chem.Phys., 132, (2010), 154104 
   

Your calculation utilizes the semiempirical GFN2-xTB method
Please cite in your paper:
C. Bannwarth, Ehlert S., S. Grimme,  J. Chem. Theory Comput., 15, (2019), 1652.
   

================================================================================

----- Orbital basis set information -----
Your calculation utilizes the basis: def2-SVP
   F. Weigend and R. Ahlrichs, Phys. Chem. Chem. Phys. 7, 3297 (2005).

----- AuxJ basis set information -----
Your calculation utilizes the auxiliary basis: def2/J
   F. Weigend, Phys. Chem. Chem. Phys. 8, 1057 (2006).

================================================================================
                                        WARNINGS
                       Please study these warnings very carefully!
================================================================================


WARNING: Geometry Optimization
  ===> : Switching off AutoStart
         For restart on a previous wavefunction, please use MOREAD

WARNING: Found dipole moment calculation with XTB calculation
  ===> : Switching off dipole moment calculation


WARNING: TRAH-SCF for XTB is not implemented!
  ===> : Turning TRAH off!

================================================================================
                                       INPUT FILE
================================================================================
NAME = /home/jang/cal_tmp/10_orca/Gen_chromophore/Gen_molecular_pairs_cal/mol_1_4.xyz/input.inp
|  1> ! B3LYP D3BJ def2-SVP TightSCF XTB Opt PAL8
|  2> 
|  3> %geom
|  4>   MaxIter 3000
|  5> end
|  6> 
|  7> * xyzfile 0 1 mol.xyz
|  8> 
|  9> %pal nprocs 4 # any number (positive integer)
| 10> end
| 11> 
| 12>                          ****END OF INPUT****
================================================================================

                       *****************************
                       * Geometry Optimization Run *
                       *****************************

Geometry optimization settings:
Update method            Update   .... BFGS
Choice of coordinates    CoordSys .... Z-matrix Internals
Initial Hessian          InHess   .... Almoef's Model

Convergence Tolerances:
Energy Change            TolE     ....  5.0000e-06 Eh
Max. Gradient            TolMAXG  ....  3.0000e-04 Eh/bohr
RMS Gradient             TolRMSG  ....  1.0000e-04 Eh/bohr
Max. Displacement        TolMAXD  ....  4.0000e-03 bohr
RMS Displacement         TolRMSD  ....  2.0000e-03 bohr
Strict Convergence                ....  False
------------------------------------------------------------------------------
                        ORCA OPTIMIZATION COORDINATE SETUP
------------------------------------------------------------------------------

The optimization will be done in new redundant internal coordinates
Making redundant internal coordinates   ...  (new redundants) done
Evaluating the initial hessian          ...  (Almloef) done
Evaluating the coordinates              ...  done
Calculating the B-matrix                .... done
Calculating the G-matrix                .... done
Diagonalizing the G-matrix              .... done
The first mode is                       ....  124
The number of degrees of freedom        ....   60

    -----------------------------------------------------------------
                    Redundant Internal Coordinates


    -----------------------------------------------------------------
         Definition                    Initial Value    Approx d2E/dq
    -----------------------------------------------------------------
      1. B(C   1,N   0)                  1.1607         1.299475   
      2. B(C   2,C   1)                  1.4207         0.558181   
      3. B(C   3,C   2)                  1.3420         0.745267   
      4. B(C   4,C   3)                  1.4533         0.495072   
      5. B(C   5,C   4)                  1.3961         0.610997   
      6. B(C   6,C   5)                  1.3983         0.606071   
      7. B(C   7,C   6)                  1.3931         0.617709   
      8. B(O   8,C   7)                  1.3628         0.618409   
      9. B(C   9,C   7)                  1.3892         0.626601   
     10. B(C  10,C   9)                  1.3932         0.617585   
     11. B(C  10,C   4)                  1.3926         0.618825   
     12. B(O  11,C  10)                  1.4074         0.524880   
     13. B(C  12,O  11)                  1.3929         0.553617   
     14. B(C  12,C   2)                  1.4791         0.450410   
     15. B(O  13,C  12)                  1.2257         1.023144   
     16. B(H  14,C   3)                  1.0869         0.364272   
     17. B(H  15,C   5)                  1.0874         0.363554   
     18. B(H  16,C   6)                  1.0873         0.363630   
     19. B(H  17,O   8)                  0.9719         0.497702   
     20. B(H  18,C   9)                  1.0845         0.367436   
     21. B(O  19,H  15)                  5.0475         0.000000   
     22. B(O  19,H  14)                  5.0313         0.000000   
     23. B(H  20,H  15)                  4.5065         0.000000   
     24. B(H  20,H  14)                  4.9013         0.000000   
     25. B(H  20,C   5)                  5.2938         0.000000   
     26. B(H  20,O  19)                  0.9690         0.503046   
     27. B(H  21,H  14)                  5.4873         0.000000   
     28. B(H  21,O  19)                  0.9690         0.503046   
     29. L(N   0,C   1,C   2,C   3, 1) 176.7279         0.484120   
     30. L(N   0,C   1,C   2,C   3, 2) 179.9999         0.484120   
     31. A(C   1,C   2,C   3)          120.3172         0.440291   
     32. A(C   3,C   2,C  12)          121.5110         0.423641   
     33. A(C   1,C   2,C  12)          118.1718         0.402448   
     34. A(C   4,C   3,H  14)          118.0943         0.340459   
     35. A(C   2,C   3,H  14)          121.5174         0.364851   
     36. A(C   2,C   3,C   4)          120.3883         0.430879   
     37. A(C   3,C   4,C   5)          122.2137         0.415848   
     38. A(C   3,C   4,C  10)          118.8668         0.416791   
     39. A(C   5,C   4,C  10)          118.9195         0.432778   
     40. A(C   4,C   5,C   6)          119.8289         0.431161   
     41. A(C   6,C   5,H  15)          119.0386         0.352123   
     42. A(H  15,C   5,H  20)           39.3909         0.095137   
     43. A(C   4,C   5,H  15)          121.1324         0.352606   
     44. A(C   6,C   5,H  20)          118.4102         0.096966   
     45. A(C   4,C   5,H  20)          107.5196         0.096980   
     46. A(C   5,C   6,H  16)          120.1646         0.352136   
     47. A(C   7,C   6,H  16)          119.7862         0.353271   
     48. A(C   5,C   6,C   7)          120.0492         0.432008   
     49. A(O   8,C   7,C   9)          121.5052         0.431848   
     50. A(C   6,C   7,C   9)          120.8908         0.434604   
     51. A(C   6,C   7,O   8)          117.6041         0.430741   
     52. A(C   7,O   8,H  17)          109.0873         0.367185   
     53. A(C   7,C   9,H  18)          121.7532         0.354753   
     54. A(C   7,C   9,C  10)          118.2978         0.434589   
     55. A(C  10,C   9,H  18)          119.9490         0.353882   
     56. A(C   4,C  10,O  11)          120.5891         0.418424   
     57. A(C   4,C  10,C   9)          122.0138         0.433613   
     58. A(C   9,C  10,O  11)          117.3971         0.418275   
     59. A(C  10,O  11,C  12)          121.8053         0.407583   
     60. A(O  11,C  12,O  13)          120.8529         0.459537   
     61. A(C   2,C  12,O  13)          122.3075         0.445566   
     62. A(C   2,C  12,O  11)          116.8396         0.399292   
     63. A(H  20,H  14,H  21)           15.6265         0.089066   
     64. A(O  19,H  14,H  21)            9.3336         0.089104   
     65. A(C   3,H  14,H  21)          134.2002         0.091875   
     66. A(O  19,H  14,H  20)           11.0966         0.089170   
     67. A(C   3,H  14,H  20)          128.1177         0.093680   
     68. A(C   3,H  14,O  19)          125.8880         0.096362   
     69. A(O  19,H  15,H  20)            9.6697         0.089233   
     70. A(C   5,H  15,H  20)          131.8009         0.095495   
     71. A(C   5,H  15,O  19)          125.1843         0.096260   
     72. A(H  14,O  19,H  15)           28.9844         0.089264   
     73. A(H  15,O  19,H  21)          127.2625         0.096723   
     74. A(H  15,O  19,H  20)           51.3672         0.096723   
     75. A(H  14,O  19,H  21)          113.3050         0.096828   
     76. A(H  14,O  19,H  20)           76.7785         0.096828   
     77. A(H  20,O  19,H  21)          103.9780         0.318375   
     78. A(H  14,H  20,H  15)           30.7375         0.089150   
     79. A(C   5,H  20,H  15)            8.8082         0.089197   
     80. A(H  15,H  20,O  19)          118.9631         0.095909   
     81. A(C   5,H  20,H  14)           30.6214         0.089142   
     82. A(H  14,H  20,O  19)           92.1249         0.093976   
     83. A(C   5,H  20,O  19)          113.0796         0.095528   
     84. A(H  14,H  21,O  19)           57.3614         0.092057   
     85. D(H  14,C   3,C   2,C   1)      0.0000         0.039562   
     86. D(C   4,C   3,C   2,C   1)    179.9995         0.039562   
     87. D(C   4,C   3,C   2,C  12)     -0.0005         0.039562   
     88. D(H  14,C   3,C   2,C  12)   -179.9999         0.039562   
     89. D(C   5,C   4,C   3,H  14)     -0.0000         0.016691   
     90. D(C   5,C   4,C   3,C   2)   -179.9995         0.016691   
     91. D(C  10,C   4,C   3,C   2)      0.0002         0.016691   
     92. D(C  10,C   4,C   3,H  14)    179.9997         0.016691   
     93. D(H  20,C   5,C   4,C  10)    139.1230         0.028018   
     94. D(H  20,C   5,C   4,C   3)    -40.8773         0.028018   
     95. D(C   6,C   5,C   4,C  10)     -0.0002         0.028018   
     96. D(H  15,C   5,C   4,C  10)    179.9999         0.028018   
     97. D(H  15,C   5,C   4,C   3)     -0.0004         0.028018   
     98. D(C   6,C   5,C   4,C   3)    179.9995         0.028018   
     99. D(C   7,C   6,C   5,C   4)      0.0001         0.027541   
    100. D(C   7,C   6,C   5,H  20)   -134.8032         0.027541   
    101. D(H  16,C   6,C   5,H  20)     45.1970         0.027541   
    102. D(H  16,C   6,C   5,C   4)   -179.9997         0.027541   
    103. D(C   7,C   6,C   5,H  15)    180.0000         0.027541   
    104. D(H  16,C   6,C   5,H  15)      0.0002         0.027541   
    105. D(C   9,C   7,C   6,H  16)    179.9999         0.026391   
    106. D(C   9,C   7,C   6,C   5)      0.0001         0.026391   
    107. D(O   8,C   7,C   6,C   5)   -179.9998         0.026391   
    108. D(O   8,C   7,C   6,H  16)      0.0000         0.026391   
    109. D(H  17,O   8,C   7,C   9)      0.0004         0.028047   
    110. D(H  17,O   8,C   7,C   6)   -179.9997         0.028047   
    111. D(H  18,C   9,C   7,O   8)     -0.0001         0.027204   
    112. D(H  18,C   9,C   7,C   6)   -180.0000         0.027204   
    113. D(C  10,C   9,C   7,O   8)    179.9997         0.027204   
    114. D(C  10,C   9,C   7,C   6)     -0.0001         0.027204   
    115. D(C   9,C  10,C   4,C   3)   -179.9995         0.026493   
    116. D(O  11,C  10,C   9,H  18)     -0.0001         0.026380   
    117. D(O  11,C  10,C   9,C   7)   -180.0000         0.026380   
    118. D(C   4,C  10,C   9,H  18)    179.9999         0.026380   
    119. D(C   4,C  10,C   9,C   7)      0.0000         0.026380   
    120. D(O  11,C  10,C   4,C   5)   -179.9999         0.026493   
    121. D(O  11,C  10,C   4,C   3)      0.0004         0.026493   
    122. D(C   9,C  10,C   4,C   5)      0.0001         0.026493   
    123. D(C  12,O  11,C  10,C   4)     -0.0008         0.019850   
    124. D(C  12,O  11,C  10,C   9)    179.9992         0.019850   
    125. D(O  13,C  12,C   2,C   3)   -179.9999         0.013828   
    126. D(O  11,C  12,C   2,C   1)   -179.9998         0.013828   
    127. D(O  11,C  12,C   2,C   3)      0.0001         0.013828   
    128. D(O  13,C  12,O  11,C  10)   -179.9994         0.022181   
    129. D(C   2,C  12,O  11,C  10)      0.0005         0.022181   
    130. D(O  13,C  12,C   2,C   1)      0.0001         0.013828   
    131. D(H  21,H  14,C   3,C   4)     78.1436         0.136262   
    132. D(H  21,H  14,C   3,C   2)   -101.8569         0.136262   
    133. D(H  20,H  14,C   3,C   4)     58.9562         0.136262   
    134. D(H  20,H  14,C   3,C   2)   -121.0444         0.136262   
    135. D(O  19,H  14,C   3,C   4)     72.5817         0.136262   
    136. D(O  19,H  14,C   3,C   2)   -107.4188         0.136262   
    137. D(H  20,H  15,C   5,C   6)    100.4513         0.135608   
    138. D(H  20,H  15,C   5,C   4)    -79.5488         0.135608   
    139. D(O  19,H  15,C   5,H  20)      9.0274         0.135608   
    140. D(O  19,H  15,C   5,C   6)    109.4787         0.135608   
    141. D(O  19,H  15,C   5,C   4)    -70.5214         0.135608   
    142. D(H  15,O  19,H  14,C   3)    -79.7155         0.001500   
    143. D(H  21,O  19,H  14,H  20)    -99.7275         0.001500   
    144. D(H  21,O  19,H  14,C   3)    154.6325         0.001500   
    145. D(H  20,O  19,H  14,H  21)     99.7275         0.001500   
    146. D(H  15,O  19,H  14,H  20)     25.9246         0.001500   
    147. D(H  20,O  19,H  14,C   3)   -105.6400         0.001500   
    148. D(H  14,O  19,H  15,H  20)   -146.9871         0.001500   
    149. D(H  14,O  19,H  15,C   5)     77.1500         0.001500   
    150. D(H  21,O  19,H  15,H  20)    -77.3207         0.001500   
    151. D(H  21,O  19,H  15,C   5)    146.8165         0.001500   
    152. D(H  20,O  19,H  15,C   5)   -135.8629         0.001500   
    153. D(H  15,O  19,H  14,H  21)    125.6521         0.001500   
    154. D(H  15,H  20,O  19,H  14)     15.7355         0.414574   
    155. D(H  14,H  20,O  19,H  15)    -15.7355         0.414574   
    156. D(H  14,H  20,O  19,H  21)    111.1196         0.414574   
    157. D(C   5,H  20,O  19,H  15)      7.3010         0.414574   
    158. D(C   5,H  20,O  19,H  21)    134.1561         0.414574   
    159. D(H  14,H  20,H  15,O  19)     32.0219         0.001500   
    160. D(H  14,H  20,H  15,C   5)     81.7943         0.001500   
    161. D(O  19,H  20,H  15,C   5)     49.7724         0.001500   
    162. D(H  15,H  20,H  14,H  21)    171.2600         0.001500   
    163. D(H  15,H  20,H  14,O  19)   -152.3386         0.001500   
    164. D(H  15,H  20,H  14,C   3)    -69.7518         0.001500   
    165. D(C   5,H  20,H  14,H  21)   -171.4296         0.001500   
    166. D(C   5,H  20,H  14,O  19)   -135.0282         0.001500   
    167. D(C   5,H  20,H  14,C   3)    -52.4414         0.001500   
    168. D(O  19,H  20,H  14,H  21)    -36.4014         0.001500   
    169. D(O  19,H  20,H  14,C   3)     82.5868         0.001500   
    170. D(C   5,H  20,H  15,O  19)    -49.7724         0.001500   
    171. D(H  15,H  20,C   5,C   6)   -102.1730         0.001500   
    172. D(H  15,H  20,C   5,C   4)    118.0278         0.001500   
    173. D(H  14,H  20,C   5,H  15)    -83.2887         0.001500   
    174. D(C   5,H  20,O  19,H  14)     23.0365         0.414574   
    175. D(H  14,H  20,C   5,C   6)    174.5383         0.001500   
    176. D(H  14,H  20,C   5,C   4)     34.7391         0.001500   
    177. D(O  19,H  20,C   5,H  15)   -133.4383         0.001500   
    178. D(H  15,H  20,O  19,H  21)    126.8551         0.414574   
    179. D(O  19,H  20,C   5,C   6)    124.3886         0.001500   
    180. D(O  19,H  20,C   5,C   4)    -15.4105         0.001500   
    181. D(H  14,H  21,O  19,H  15)    -29.6526         0.352101   
    182. D(H  14,H  21,O  19,H  20)    -81.4075         0.352101   
    183. D(O  19,H  21,H  14,H  20)     44.7679         0.001500   
    184. D(O  19,H  21,H  14,C   3)    -28.9570         0.001500   
    -----------------------------------------------------------------

Number of atoms                         .... 22
Number of degrees of freedom            .... 184

         *************************************************************
         *                GEOMETRY OPTIMIZATION CYCLE   1            *
         *************************************************************
---------------------------------
CARTESIAN COORDINATES (ANGSTROEM)
---------------------------------
  N     4.575418   -0.183461    2.047817
  C     3.496207    0.022814    1.673797
  C     2.179739    0.206996    1.172450
  C     1.647286   -0.685273    0.323141
  C     0.300700   -0.498387   -0.190671
  C    -0.290350   -1.402176   -1.075467
  C    -1.589649   -1.173299   -1.538751
  C    -2.291839   -0.046071   -1.118004
  O    -3.554411    0.127949   -1.600546
  C    -1.719190    0.863633   -0.237986
  C    -0.423937    0.620044    0.213542
  O     0.137700    1.553757    1.104394
  C     1.425429    1.400623    1.612867
  O     1.897368    2.224699    2.387862
  H     2.201475   -1.562411   -0.000554
  H     0.242670   -2.287259   -1.414526
  H    -2.055261   -1.873645   -2.227982
  H    -3.926347    0.945853   -1.230006
  H    -2.253009    1.745616    0.098623
  O     4.182627   -2.279130   -4.569453
  H     3.408803   -2.862359   -4.569453
  H     4.935503   -2.889162   -4.569453

----------------------------
CARTESIAN COORDINATES (A.U.)
----------------------------
  NO LB    ZA    FRAG    MASS        X           Y           Z
   0 N   7.0000    0    14.007    8.646288   -0.346692    3.869813
   1 C   6.0000    0    12.011    6.606873    0.043112    3.163017
   2 C   6.0000    0    12.011    4.119110    0.391167    2.215609
   3 C   6.0000    0    12.011    3.112920   -1.294979    0.610648
   4 C   6.0000    0    12.011    0.568240   -0.941816   -0.360316
   5 C   6.0000    0    12.011   -0.548682   -2.649729   -2.032338
   6 C   6.0000    0    12.011   -3.004001   -2.217214   -2.907818
   7 C   6.0000    0    12.011   -4.330948   -0.087061   -2.112721
   8 O   8.0000    0    15.999   -6.716862    0.241788   -3.024593
   9 C   6.0000    0    12.011   -3.248799    1.632029   -0.449728
  10 C   6.0000    0    12.011   -0.801124    1.171713    0.403536
  11 O   8.0000    0    15.999    0.260215    2.936175    2.087002
  12 C   6.0000    0    12.011    2.693670    2.646793    3.047876
  13 O   8.0000    0    15.999    3.585507    4.204072    4.512405
  14 H   1.0000    0     1.008    4.160185   -2.952530   -0.001047
  15 H   1.0000    0     1.008    0.458580   -4.322292   -2.673066
  16 H   1.0000    0     1.008   -3.883881   -3.540675   -4.210276
  17 H   1.0000    0     1.008   -7.419721    1.787403   -2.324374
  18 H   1.0000    0     1.008   -4.257570    3.298736    0.186370
  19 O   8.0000    0    15.999    7.904020   -4.306931   -8.635014
  20 H   1.0000    0     1.008    6.441704   -5.409075   -8.635014
  21 H   1.0000    0     1.008    9.326750   -5.459724   -8.635014

      -----------------------------------------------------------      
     |                   =====================                   |     
     |                           x T B                           |     
     |                   =====================                   |     
     |                         S. Grimme                         |     
     |          Mulliken Center for Theoretical Chemistry        |     
     |                    University of Bonn                     |     
      -----------------------------------------------------------      

   * xtb version 6.6.1 (8d0f1dd) compiled by 'stahn@M-Bot' on 2023-08-01

   xtb is free software: you can redistribute it and/or modify it under
   the terms of the GNU Lesser General Public License as published by
   the Free Software Foundation, either version 3 of the License, or
   (at your option) any later version.
   
   xtb is distributed in the hope that it will be useful,
   but WITHOUT ANY WARRANTY; without even the implied warranty of
   MERCHANTABILITY or FITNESS FOR A PARTICULAR PURPOSE.  See the
   GNU Lesser General Public License for more details.
   
   Cite this work as:
   * C. Bannwarth, E. Caldeweyher, S. Ehlert, A. Hansen, P. Pracht,
     J. Seibert, S. Spicher, S. Grimme, WIREs Comput. Mol. Sci., 2020, 11,
     e01493. DOI: 10.1002/wcms.1493
   
   for GFN2-xTB:
   * C. Bannwarth, S. Ehlert and S. Grimme., J. Chem. Theory Comput., 2019,
     15, 1652-1671. DOI: 10.1021/acs.jctc.8b01176
   for GFN1-xTB:
   * S. Grimme, C. Bannwarth, P. Shushkov, J. Chem. Theory Comput., 2017,
     13, 1989-2009. DOI: 10.1021/acs.jctc.7b00118
   for GFN0-xTB:
   * P. Pracht, E. Caldeweyher, S. Ehlert, S. Grimme, ChemRxiv, 2019, preprint.
     DOI: 10.26434/chemrxiv.8326202.v1
   for GFN-FF:
   * S. Spicher and S. Grimme, Angew. Chem. Int. Ed., 2020, 59, 15665-15673.
     DOI: 10.1002/anie.202004239
   
   for ALPB and GBSA implicit solvation:
   * S. Ehlert, M. Stahn, S. Spicher, S. Grimme, J. Chem. Theory Comput.,
     2021, 17, 4250-4261. DOI: 10.1021/acs.jctc.1c00471
   
   for DFT-D4:
   * E. Caldeweyher, C. Bannwarth and S. Grimme, J. Chem. Phys., 2017,
     147, 034112. DOI: 10.1063/1.4993215
   * E. Caldeweyher, S. Ehlert, A. Hansen, H. Neugebauer, S. Spicher,
     C. Bannwarth and S. Grimme, J. Chem. Phys., 2019, 150, 154122.
     DOI: 10.1063/1.5090222
   * E. Caldeweyher, J.-M. Mewes, S. Ehlert and S. Grimme, Phys. Chem. Chem. Phys.
     2020, 22, 8499-8512. DOI: 10.1039/D0CP00502A
   
   for sTDA-xTB:
   * S. Grimme and C. Bannwarth, J. Chem. Phys., 2016, 145, 054103.
     DOI: 10.1063/1.4959605
   
   in the mass-spec context:
   * V. Asgeirsson, C. Bauer and S. Grimme, Chem. Sci., 2017, 8, 4879.
     DOI: 10.1039/c7sc00601b
   * J. Koopman and S. Grimme, ACS Omega 2019, 4, 12, 15120-15133.
     DOI: 10.1021/acsomega.9b02011
   
   for metadynamics refer to:
   * S. Grimme, J. Chem. Theory Comput., 2019, 155, 2847-2862
     DOI: 10.1021/acs.jctc.9b00143
   
   for SPH calculations refer to:
   * S. Spicher and S. Grimme, J. Chem. Theory Comput., 2021, 17, 1701-1714
     DOI: 10.1021/acs.jctc.0c01306
   
   with help from (in alphabetical order)
   P. Atkinson, C. Bannwarth, F. Bohle, G. Brandenburg, E. Caldeweyher
   M. Checinski, S. Dohm, S. Ehlert, S. Ehrlich, I. Gerasimov, C. Hölzer
   A. Katbashev, J. Koopman, C. Lavigne, S. Lehtola, F. März, M. Müller,
   F. Musil, H. Neugebauer, J. Pisarek, C. Plett, P. Pracht, F. Pultar,
   J. Seibert, P. Shushkov, S. Spicher, M. Stahn, M. Steiner, T. Strunk,
   J. Stückrath, T. Rose, and J. Unsleber
   
 * started run on 2025/01/14 at 20:45:15.703     

           -------------------------------------------------
          |                Calculation Setup                |
           -------------------------------------------------

          program call               : /home/jang/cal_tmp/10_orca/orca_5_0_4_linux_x86-64_shared_openmpi411/otool_xtb /home/jang/cal_tmp/10_orca/Gen_chromophore/Gen_molecular_pairs_cal/mol_1_4.xyz/input_XTB.xyz --grad -c 0 -u 0 -P 4 --namespace /home/jang/cal_tmp/10_orca/Gen_chromophore/Gen_molecular_pairs_cal/mol_1_4.xyz/input --input /home/jang/cal_tmp/10_orca/Gen_chromophore/Gen_molecular_pairs_cal/mol_1_4.xyz/input_XTB.input.tmp --acc 1.000000
          hostname                   : node02
          calculation namespace      : /home/jang/cal_tmp/10_orca/Gen_chromophore/Gen_molecular_pairs_cal/mol_1_4.xyz/input
          coordinate file            : /home/jang/cal_tmp/10_orca/Gen_chromophore/Gen_molecular_pairs_cal/mol_1_4.xyz/input_XTB.xyz
          omp threads                :                     4

   ID    Z sym.   atoms
    1    7 N      1
    2    6 C      2-8, 10, 11, 13
    3    8 O      9, 12, 14, 20
    4    1 H      15-19, 21, 22

molecular fragmentation (1/2 indicates fragments):
1111111111111111111222
# atoms in fragment 1/2:    19     3
 fragment masses (1/2) :      187.15       18.02
CMA distance (Bohr)    :  12.753
constraining FC (au)   :  0.0500

           -------------------------------------------------
          |                 G F N 2 - x T B                 |
           -------------------------------------------------

        Reference                      10.1021/acs.jctc.8b01176
      * Hamiltonian:
        H0-scaling (s, p, d)           1.850000    2.230000    2.230000
        zeta-weighting                 0.500000
      * Dispersion:
        s8                             2.700000
        a1                             0.520000
        a2                             5.000000
        s9                             5.000000
      * Repulsion:
        kExp                           1.500000    1.000000
        rExp                           1.000000
      * Coulomb:
        alpha                          2.000000
        third order                    shell-resolved
        anisotropic                    true
        a3                             3.000000
        a5                             4.000000
        cn-shift                       1.200000
        cn-exp                         4.000000
        max-rad                        5.000000


          ...................................................
          :                      SETUP                      :
          :.................................................:
          :  # basis functions                  67          :
          :  # atomic orbitals                  67          :
          :  # shells                           37          :
          :  # electrons                        76          :
          :  max. iterations                   250          :
          :  Hamiltonian                  GFN2-xTB          :
          :  restarted?                      false          :
          :  GBSA solvation                  false          :
          :  PC potential                    false          :
          :  electronic temp.          300.0000000     K    :
          :  accuracy                    1.0000000          :
          :  -> integral cutoff          0.2500000E+02      :
          :  -> integral neglect         0.1000000E-07      :
          :  -> SCF convergence          0.1000000E-05 Eh   :
          :  -> wf. convergence          0.1000000E-03 e    :
          :  Broyden damping             0.4000000          :
          ...................................................

 iter      E             dE          RMSdq      gap      omega  full diag
   1    -44.6072736 -0.446073E+02  0.557E+00    2.84       0.0  T
   2    -44.6422804 -0.350067E-01  0.347E+00    2.74       1.0  T
   3    -44.6246343  0.176461E-01  0.230E+00    2.73       1.0  T
   4    -44.6811522 -0.565179E-01  0.695E-01    2.73       1.0  T
   5    -44.6885208 -0.736864E-02  0.177E-01    2.70       1.0  T
   6    -44.6886759 -0.155043E-03  0.765E-02    2.72       1.0  T
   7    -44.6887264 -0.505111E-04  0.342E-02    2.71       1.0  T
   8    -44.6887351 -0.869809E-05  0.154E-02    2.72       1.4  T
   9    -44.6887374 -0.231042E-05  0.567E-03    2.72       3.8  T
  10    -44.6887377 -0.292315E-06  0.237E-03    2.72       9.0  T
  11    -44.6887377 -0.891379E-08  0.112E-03    2.72      19.0  T
  12    -44.6887377 -0.141805E-07  0.472E-04    2.72      45.1  T
  13    -44.6887377 -0.937973E-09  0.158E-04    2.72     134.5  T

   *** convergence criteria satisfied after 13 iterations ***

         #    Occupation            Energy/Eh            Energy/eV
      -------------------------------------------------------------
         1        2.0000           -0.7611290             -20.7114
       ...           ...                  ...                  ...
        32        2.0000           -0.4717558             -12.8371
        33        2.0000           -0.4610149             -12.5449
        34        2.0000           -0.4539379             -12.3523
        35        2.0000           -0.4390374             -11.9468
        36        2.0000           -0.4388200             -11.9409
        37        2.0000           -0.4260149             -11.5925
        38        2.0000           -0.4195658             -11.4170 (HOMO)
        39                         -0.3197772              -8.7016 (LUMO)
        40                         -0.2742305              -7.4622
        41                         -0.2520704              -6.8592
        42                         -0.2295812              -6.2472
        43                         -0.2249736              -6.1218
       ...                                ...                  ...
        67                          1.0841208              29.5004
      -------------------------------------------------------------
                  HL-Gap            0.0997886 Eh            2.7154 eV
             Fermi-level           -0.3696715 Eh          -10.0593 eV

 SCC (total)                   0 d,  0 h,  0 min,  0.059 sec
 SCC setup                      ...        0 min,  0.000 sec (  0.731%)
 Dispersion                     ...        0 min,  0.000 sec (  0.780%)
 classical contributions        ...        0 min,  0.000 sec (  0.256%)
 integral evaluation            ...        0 min,  0.003 sec (  5.315%)
 iterations                     ...        0 min,  0.049 sec ( 82.646%)
 molecular gradient             ...        0 min,  0.006 sec (  9.593%)
 printout                       ...        0 min,  0.000 sec (  0.519%)

         :::::::::::::::::::::::::::::::::::::::::::::::::::::
         ::                     SUMMARY                     ::
         :::::::::::::::::::::::::::::::::::::::::::::::::::::
         :: total energy             -44.112178778054 Eh    ::
         :: gradient norm              0.099579175362 Eh/a0 ::
         :: HOMO-LUMO gap              2.715386251698 eV    ::
         ::.................................................::
         :: SCC energy               -44.688737686642 Eh    ::
         :: -> isotropic ES            0.101327271516 Eh    ::
         :: -> anisotropic ES          0.003160620735 Eh    ::
         :: -> anisotropic XC          0.021846980654 Eh    ::
         :: -> dispersion             -0.019386501565 Eh    ::
         :: repulsion energy           0.576572042590 Eh    ::
         :: add. restraining           0.000000000000 Eh    ::
         :: total charge              -0.000000000000 e     ::
         :::::::::::::::::::::::::::::::::::::::::::::::::::::


Property printout bound to 'properties.out'

           -------------------------------------------------
          | TOTAL ENERGY              -44.112178778054 Eh   |
          | GRADIENT NORM               0.099579175362 Eh/α |
          | HOMO-LUMO GAP               2.715386251698 eV   |
           -------------------------------------------------

------------------------------------------------------------------------
 * finished run on 2025/01/14 at 20:45:16.505     
------------------------------------------------------------------------
 total:
 * wall-time:     0 d,  0 h,  0 min,  0.800 sec
 *  cpu-time:     0 d,  0 h,  0 min,  1.424 sec
 * ratio c/w:     1.780 speedup
 SCF:
 * wall-time:     0 d,  0 h,  0 min,  0.059 sec
 *  cpu-time:     0 d,  0 h,  0 min,  0.219 sec
 * ratio c/w:     3.688 speedup


-------------------------   --------------------
FINAL SINGLE POINT ENERGY       -44.112178778050
-------------------------   --------------------

------------------------------------------------------------------------------
                         ORCA GEOMETRY RELAXATION STEP
------------------------------------------------------------------------------

Reading the OPT-File                    .... done
Getting information on internals        .... done
Copying old internal coords+grads       .... done
Making the new internal coordinates     .... (new redundants).... done
Validating the new internal coordinates .... (new redundants).... done
Calculating the B-matrix                .... done
Calculating the G,G- and P matrices     .... done
Transforming gradient to internals      .... done
Projecting the internal gradient        .... done
Number of atoms                         ....  22
Number of internal coordinates          .... 184
Current Energy                          ....   -44.112178778 Eh
Current gradient norm                   ....     0.099579175 Eh/bohr
Maximum allowed component of the step   ....  0.300
Current trust radius                    ....  0.300
Evaluating the initial hessian          ....  (Almloef) done
Projecting the Hessian                  .... done
Forming the augmented Hessian           .... done
Diagonalizing the augmented Hessian     .... done
Last element of RFO vector              ....  0.991387620
Lowest eigenvalues of augmented Hessian:
 -0.009386776  0.000577716  0.011097270  0.016351838  0.017932354
Length of the computed step             ....  0.132097926
The final length of the internal step   ....  0.132097926
Converting the step to cartesian space:
 Initial RMS(Int)=    0.0097383883
Transforming coordinates:
 Iter   0:  RMS(Cart)=    0.0306988686 RMS(Int)=    1.5360394424
 Iter   1:  RMS(Cart)=    0.0002733755 RMS(Int)=    0.0001316214
 Iter   2:  RMS(Cart)=    0.0000061641 RMS(Int)=    0.0000033613
 Iter   3:  RMS(Cart)=    0.0000006893 RMS(Int)=    0.0000003901
 Iter   4:  RMS(Cart)=    0.0000003130 RMS(Int)=    0.0000001825
 Iter   5:  RMS(Cart)=    0.0000001537 RMS(Int)=    0.0000000897
 Iter   6:  RMS(Cart)=    0.0000000756 RMS(Int)=    0.0000000441
done
Storing new coordinates                 .... done

                                .--------------------.
          ----------------------|Geometry convergence|-------------------------
          Item                value                   Tolerance       Converged
          ---------------------------------------------------------------------
          RMS gradient        0.0059569150            0.0001000000      NO
          MAX gradient        0.0406878112            0.0003000000      NO
          RMS step            0.0097383883            0.0020000000      NO
          MAX step            0.0588113464            0.0040000000      NO
          ........................................................
          Max(Bonds)      0.0311      Max(Angles)    1.47
          Max(Dihed)        0.89      Max(Improp)    0.00
          ---------------------------------------------------------------------

The optimization has not yet converged - more geometry cycles are needed


    ---------------------------------------------------------------------------
                         Redundant Internal Coordinates
                            (Angstroem and degrees)

        Definition                    Value    dE/dq     Step     New-Value
    ----------------------------------------------------------------------------
     1. B(C   1,N   0)                1.1607  0.037383 -0.0151    1.1455   
     2. B(C   2,C   1)                1.4207  0.006233 -0.0058    1.4149   
     3. B(C   3,C   2)                1.3420 -0.011888  0.0089    1.3509   
     4. B(C   4,C   3)                1.4533  0.018650 -0.0191    1.4342   
     5. B(C   5,C   4)                1.3961 -0.000776  0.0009    1.3970   
     6. B(C   6,C   5)                1.3983  0.020409 -0.0176    1.3807   
     7. B(C   7,C   6)                1.3931 -0.003647  0.0027    1.3958   
     8. B(O   8,C   7)                1.3628  0.010196 -0.0086    1.3542   
     9. B(C   9,C   7)                1.3892 -0.000243 -0.0001    1.3892   
    10. B(C  10,C   9)                1.3932  0.009495 -0.0079    1.3852   
    11. B(C  10,C   4)                1.3926 -0.004380  0.0041    1.3968   
    12. B(O  11,C  10)                1.4074  0.030679 -0.0311    1.3763   
    13. B(C  12,O  11)                1.3929  0.024732 -0.0241    1.3688   
    14. B(C  12,C   2)                1.4791  0.004952 -0.0058    1.4732   
    15. B(O  13,C  12)                1.2257  0.040688 -0.0209    1.2049   
    16. B(H  14,C   3)                1.0869  0.003489 -0.0056    1.0812   
    17. B(H  15,C   5)                1.0874  0.005137 -0.0087    1.0787   
    18. B(H  16,C   6)                1.0873  0.006741 -0.0096    1.0778   
    19. B(H  17,O   8)                0.9719  0.005064 -0.0053    0.9666   
    20. B(H  18,C   9)                1.0845  0.003829 -0.0054    1.0791   
    21. B(O  19,H  15)                5.0475  0.001079 -0.0004    5.0471   
    22. B(O  19,H  14)                5.0313 -0.000705 -0.0021    5.0291   
    23. B(H  20,H  15)                4.5065 -0.002271  0.0023    4.5088   
    24. B(H  20,H  14)                4.9013  0.000158 -0.0036    4.8977   
    25. B(H  20,C   5)                5.2938  0.001471 -0.0044    5.2894   
    26. B(H  20,O  19)                0.9690  0.006026 -0.0072    0.9618   
    27. B(H  21,H  14)                5.4873  0.000888 -0.0038    5.4834   
    28. B(H  21,O  19)                0.9690  0.006307 -0.0073    0.9617   
    29. L(N   0,C   1,C   2,C   3, 1) 176.73 -0.000913    0.11    176.83   
    30. L(N   0,C   1,C   2,C   3, 2) 180.00  0.000086   -0.01    179.99   
    31. A(C   1,C   2,C   3)          120.32 -0.003788    0.41    120.73   
    32. A(C   3,C   2,C  12)          121.51  0.002465   -0.15    121.36   
    33. A(C   1,C   2,C  12)          118.17  0.001324   -0.26    117.91   
    34. A(C   4,C   3,H  14)          118.09 -0.000959    0.22    118.31   
    35. A(C   2,C   3,H  14)          121.52 -0.004338    0.32    121.83   
    36. A(C   2,C   3,C   4)          120.39  0.005297   -0.54    119.85   
    37. A(C   3,C   4,C   5)          122.21 -0.002922    0.51    122.73   
    38. A(C   3,C   4,C  10)          118.87  0.003597   -0.49    118.38   
    39. A(C   5,C   4,C  10)          118.92 -0.000675   -0.02    118.90   
    40. A(C   4,C   5,C   6)          119.83 -0.002000    0.26    120.09   
    41. A(C   6,C   5,H  15)          119.04 -0.000624    0.22    119.26   
    42. A(H  15,C   5,H  20)           39.39 -0.000196    0.06     39.45   
    43. A(C   4,C   5,H  15)          121.13  0.002624   -0.48    120.65   
    44. A(C   6,C   5,H  20)          118.41 -0.000544    0.16    118.57   
    45. A(C   4,C   5,H  20)          107.52  0.002260   -0.40    107.12   
    46. A(C   5,C   6,H  16)          120.16 -0.001526    0.25    120.42   
    47. A(C   7,C   6,H  16)          119.79  0.002044   -0.31    119.47   
    48. A(C   5,C   6,C   7)          120.05 -0.000518    0.06    120.11   
    49. A(O   8,C   7,C   9)          121.51 -0.000551    0.09    121.60   
    50. A(C   6,C   7,C   9)          120.89  0.000797   -0.14    120.75   
    51. A(C   6,C   7,O   8)          117.60 -0.000245    0.05    117.65   
    52. A(C   7,O   8,H  17)          109.09 -0.003605    0.55    109.64   
    53. A(C   7,C   9,H  18)          121.75 -0.000115    0.02    121.77   
    54. A(C   7,C   9,C  10)          118.30 -0.001414    0.22    118.52   
    55. A(C  10,C   9,H  18)          119.95  0.001529   -0.24    119.71   
    56. A(C   4,C  10,O  11)          120.59 -0.006438    0.80    121.39   
    57. A(C   4,C  10,C   9)          122.01  0.003810   -0.38    121.63   
    58. A(C   9,C  10,O  11)          117.40  0.002629   -0.42    116.98   
    59. A(C  10,O  11,C  12)          121.81 -0.003688    0.29    122.10   
    60. A(O  11,C  12,O  13)          120.85  0.012123   -1.47    119.38   
    61. A(C   2,C  12,O  13)          122.31 -0.010890    1.38    123.69   
    62. A(C   2,C  12,O  11)          116.84 -0.001232    0.08    116.92   
    63. A(H  20,H  14,H  21)           15.63  0.000878   -0.02     15.61   
    64. A(O  19,H  14,H  21)            9.33  0.000635   -0.08      9.26   
    65. A(C   3,H  14,H  21)          134.20  0.000624   -0.14    134.06   
    66. A(O  19,H  14,H  20)           11.10  0.000669   -0.08     11.02   
    67. A(C   3,H  14,H  20)          128.12  0.000340   -0.11    128.01   
    68. A(C   3,H  14,O  19)          125.89  0.000069   -0.04    125.85   
    69. A(O  19,H  15,H  20)            9.67  0.000571   -0.09      9.58   
    70. A(C   5,H  15,H  20)          131.80 -0.000195    0.01    131.81   
    71. A(C   5,H  15,O  19)          125.18 -0.000594    0.07    125.25   
    72. A(H  14,O  19,H  15)           28.98  0.001019   -0.05     28.93   
    73. A(H  15,O  19,H  21)          127.26 -0.001061    0.52    127.78   
    74. A(H  15,O  19,H  20)           51.37 -0.000260   -0.06     51.31   
    75. A(H  14,O  19,H  21)          113.30 -0.001179    0.15    113.46   
    76. A(H  14,O  19,H  20)           76.78  0.000587   -0.11     76.67   
    77. A(H  20,O  19,H  21)          103.98 -0.001272    0.86    104.84   
    78. A(H  14,H  20,H  15)           30.74  0.001147   -0.05     30.69   
    79. A(C   5,H  20,H  15)            8.81  0.000392   -0.06      8.74   
    80. A(H  15,H  20,O  19)          118.96 -0.000311    0.14    119.10   
    81. A(C   5,H  20,H  14)           30.62  0.001190   -0.06     30.57   
    82. A(H  14,H  20,O  19)           92.12 -0.001256    0.19     92.31   
    83. A(C   5,H  20,O  19)          113.08 -0.000570    0.18    113.26   
    84. A(H  14,H  21,O  19)           57.36  0.000543   -0.08     57.28   
    85. D(H  14,C   3,C   2,C   1)      0.00 -0.000025   -0.17     -0.17   
    86. D(C   4,C   3,C   2,C   1)    180.00  0.000096   -0.15    179.85   
    87. D(C   4,C   3,C   2,C  12)     -0.00 -0.000051    0.04      0.04   
    88. D(H  14,C   3,C   2,C  12)   -180.00 -0.000172    0.02   -179.98   
    89. D(C   5,C   4,C   3,H  14)     -0.00  0.000107   -0.07     -0.07   
    90. D(C   5,C   4,C   3,C   2)   -180.00 -0.000010   -0.09   -180.09   
    91. D(C  10,C   4,C   3,C   2)      0.00  0.000187    0.00      0.00   
    92. D(C  10,C   4,C   3,H  14)    180.00  0.000304    0.02    180.02   
    93. D(H  20,C   5,C   4,C  10)    139.12 -0.000237    0.03    139.16   
    94. D(H  20,C   5,C   4,C   3)    -40.88 -0.000039    0.12    -40.75   
    95. D(C   6,C   5,C   4,C  10)     -0.00  0.000133   -0.03     -0.03   
    96. D(H  15,C   5,C   4,C  10)    180.00  0.000226   -0.02    179.98   
    97. D(H  15,C   5,C   4,C   3)     -0.00  0.000423    0.07      0.07   
    98. D(C   6,C   5,C   4,C   3)    180.00  0.000330    0.06    180.06   
    99. D(C   7,C   6,C   5,C   4)      0.00 -0.000039   -0.00     -0.00   
   100. D(C   7,C   6,C   5,H  20)   -134.80 -0.000623    0.14   -134.66   
   101. D(H  16,C   6,C   5,H  20)     45.20 -0.000470    0.11     45.31   
   102. D(H  16,C   6,C   5,C   4)   -180.00  0.000115   -0.03   -180.03   
   103. D(C   7,C   6,C   5,H  15)    180.00 -0.000130   -0.01    179.99   
   104. D(H  16,C   6,C   5,H  15)      0.00  0.000024   -0.04     -0.04   
   105. D(C   9,C   7,C   6,H  16)    180.00 -0.000226    0.05    180.05   
   106. D(C   9,C   7,C   6,C   5)      0.00 -0.000073    0.01      0.01   
   107. D(O   8,C   7,C   6,C   5)   -180.00  0.000014    0.01   -179.99   
   108. D(O   8,C   7,C   6,H  16)      0.00 -0.000139    0.04      0.04   
   109. D(H  17,O   8,C   7,C   9)      0.00 -0.000001    0.07      0.07   
   110. D(H  17,O   8,C   7,C   6)   -180.00 -0.000089    0.07   -179.93   
   111. D(H  18,C   9,C   7,O   8)     -0.00 -0.000042   -0.02     -0.02   
   112. D(H  18,C   9,C   7,C   6)   -180.00  0.000049   -0.03   -180.03   
   113. D(C  10,C   9,C   7,O   8)    180.00 -0.000004    0.01    180.01   
   114. D(C  10,C   9,C   7,C   6)     -0.00  0.000087    0.00      0.00   
   115. D(C   9,C  10,C   4,C   3)   -180.00 -0.000311   -0.04   -180.04   
   116. D(O  11,C  10,C   9,H  18)     -0.00 -0.000081    0.02      0.02   
   117. D(O  11,C  10,C   9,C   7)   -180.00 -0.000118   -0.01   -180.01   
   118. D(C   4,C  10,C   9,H  18)    180.00  0.000048   -0.00    180.00   
   119. D(C   4,C  10,C   9,C   7)      0.00  0.000011   -0.04     -0.04   
   120. D(O  11,C  10,C   4,C   5)   -180.00  0.000013    0.02   -179.98   
   121. D(O  11,C  10,C   4,C   3)      0.00 -0.000178   -0.07     -0.07   
   122. D(C   9,C  10,C   4,C   5)      0.00 -0.000120    0.05      0.05   
   123. D(C  12,O  11,C  10,C   4)     -0.00  0.000032    0.09      0.09   
   124. D(C  12,O  11,C  10,C   9)    180.00  0.000159    0.07    180.07   
   125. D(O  13,C  12,C   2,C   3)   -180.00  0.000126   -0.25   -180.25   
   126. D(O  11,C  12,C   2,C   1)   -180.00 -0.000236    0.17   -179.83   
   127. D(O  11,C  12,C   2,C   3)      0.00 -0.000093   -0.02     -0.02   
   128. D(O  13,C  12,O  11,C  10)   -180.00 -0.000112    0.18   -179.82   
   129. D(C   2,C  12,O  11,C  10)      0.00  0.000103   -0.05     -0.05   
   130. D(O  13,C  12,C   2,C   1)      0.00 -0.000018   -0.06     -0.06   
   131. D(H  21,H  14,C   3,C   4)     78.14  0.000566   -0.07     78.07   
   132. D(H  21,H  14,C   3,C   2)   -101.86  0.000684   -0.05   -101.91   
   133. D(H  20,H  14,C   3,C   4)     58.96 -0.000695   -0.02     58.93   
   134. D(H  20,H  14,C   3,C   2)   -121.04 -0.000577   -0.00   -121.05   
   135. D(O  19,H  14,C   3,C   4)     72.58  0.000130   -0.12     72.46   
   136. D(O  19,H  14,C   3,C   2)   -107.42  0.000248   -0.10   -107.52   
   137. D(H  20,H  15,C   5,C   6)    100.45 -0.000235    0.03    100.48   
   138. D(H  20,H  15,C   5,C   4)    -79.55 -0.000328    0.02    -79.53   
   139. D(O  19,H  15,C   5,H  20)      9.03  0.000475   -0.07      8.95   
   140. D(O  19,H  15,C   5,C   6)    109.48  0.000240   -0.05    109.43   
   141. D(O  19,H  15,C   5,C   4)    -70.52  0.000148   -0.06    -70.58   
   142. D(H  15,O  19,H  14,C   3)    -79.72 -0.000862    0.35    -79.36   
   143. D(H  21,O  19,H  14,H  20)    -99.73  0.000974   -0.88   -100.61   
   144. D(H  21,O  19,H  14,C   3)    154.63 -0.000002   -0.54    154.10   
   145. D(H  20,O  19,H  14,H  21)     99.73 -0.000974    0.88    100.61   
   146. D(H  15,O  19,H  14,H  20)     25.92  0.000114    0.01     25.93   
   147. D(H  20,O  19,H  14,C   3)   -105.64 -0.000977    0.35   -105.29   
   148. D(H  14,O  19,H  15,H  20)   -146.99  0.000377    0.02   -146.97   
   149. D(H  14,O  19,H  15,C   5)     77.15  0.000199    0.05     77.20   
   150. D(H  21,O  19,H  15,H  20)    -77.32  0.001234   -0.81    -78.13   
   151. D(H  21,O  19,H  15,C   5)    146.82  0.001056   -0.78    146.04   
   152. D(H  20,O  19,H  15,C   5)   -135.86 -0.000178    0.03   -135.83   
   153. D(H  15,O  19,H  14,H  21)    125.65 -0.000860    0.89    126.54   
   154. D(H  15,H  20,O  19,H  14)     15.74  0.000643   -0.01     15.72   
   155. D(H  14,H  20,O  19,H  15)    -15.74 -0.000643    0.01    -15.72   
   156. D(H  14,H  20,O  19,H  21)    111.12 -0.000927    0.01    111.13   
   157. D(C   5,H  20,O  19,H  15)      7.30  0.000300   -0.04      7.26   
   158. D(C   5,H  20,O  19,H  21)    134.16  0.000017   -0.05    134.11   
   159. D(H  14,H  20,H  15,O  19)     32.02  0.000250    0.02     32.05   
   160. D(H  14,H  20,H  15,C   5)     81.79  0.000322    0.01     81.81   
   161. D(O  19,H  20,H  15,C   5)     49.77  0.000072   -0.01     49.76   
   162. D(H  15,H  20,H  14,H  21)    171.26 -0.000382    0.38    171.64   
   163. D(H  15,H  20,H  14,O  19)   -152.34  0.000276   -0.02   -152.36   
   164. D(H  15,H  20,H  14,C   3)    -69.75 -0.000160    0.26    -69.50   
   165. D(C   5,H  20,H  14,H  21)   -171.43 -0.000207    0.28   -171.15   
   166. D(C   5,H  20,H  14,O  19)   -135.03  0.000451   -0.12   -135.15   
   167. D(C   5,H  20,H  14,C   3)    -52.44  0.000015    0.16    -52.29   
   168. D(O  19,H  20,H  14,H  21)    -36.40 -0.000658    0.40    -36.00   
   169. D(O  19,H  20,H  14,C   3)     82.59 -0.000436    0.27     82.86   
   170. D(C   5,H  20,H  15,O  19)    -49.77 -0.000072    0.01    -49.76   
   171. D(H  15,H  20,C   5,C   6)   -102.17  0.000442   -0.19   -102.36   
   172. D(H  15,H  20,C   5,C   4)    118.03  0.001523   -0.30    117.72   
   173. D(H  14,H  20,C   5,H  15)    -83.29  0.000296   -0.06    -83.35   
   174. D(C   5,H  20,O  19,H  14)     23.04  0.000944   -0.06     22.98   
   175. D(H  14,H  20,C   5,C   6)    174.54  0.000738   -0.26    174.28   
   176. D(H  14,H  20,C   5,C   4)     34.74  0.001819   -0.37     34.37   
   177. D(O  19,H  20,C   5,H  15)   -133.44 -0.000011   -0.01   -133.45   
   178. D(H  15,H  20,O  19,H  21)    126.86 -0.000284   -0.01    126.85   
   179. D(O  19,H  20,C   5,C   6)    124.39  0.000432   -0.20    124.19   
   180. D(O  19,H  20,C   5,C   4)    -15.41  0.001513   -0.31    -15.72   
   181. D(H  14,H  21,O  19,H  15)    -29.65 -0.000939    0.19    -29.46   
   182. D(H  14,H  21,O  19,H  20)    -81.41  0.000078   -0.25    -81.66   
   183. D(O  19,H  21,H  14,H  20)     44.77  0.000435   -0.50     44.27   
   184. D(O  19,H  21,H  14,C   3)    -28.96 -0.000311   -0.56    -29.52   
    ----------------------------------------------------------------------------

         *************************************************************
         *                GEOMETRY OPTIMIZATION CYCLE   2            *
         *************************************************************
---------------------------------
CARTESIAN COORDINATES (ANGSTROEM)
---------------------------------
  N     4.539769   -0.150260    2.061769
  C     3.476391    0.038823    1.679988
  C     2.168406    0.206222    1.167118
  C     1.640972   -0.697660    0.312953
  C     0.311914   -0.511054   -0.192880
  C    -0.291378   -1.406294   -1.079601
  C    -1.574137   -1.172444   -1.533519
  C    -2.272160   -0.041069   -1.107943
  O    -3.526970    0.139344   -1.584145
  C    -1.691233    0.862191   -0.226812
  C    -0.403558    0.615233    0.220155
  O     0.140997    1.530599    1.091841
  C     1.405263    1.390596    1.597508
  O     1.832278    2.220090    2.359976
  H     2.194012   -1.569654   -0.007718
  H     0.235335   -2.285018   -1.417212
  H    -2.044413   -1.859323   -2.218099
  H    -3.899475    0.952753   -1.218134
  H    -2.215553    1.742230    0.112524
  O     4.172242   -2.287664   -4.575354
  H     3.402005   -2.863622   -4.574269
  H     4.926227   -2.884669   -4.576504

----------------------------
CARTESIAN COORDINATES (A.U.)
----------------------------
  NO LB    ZA    FRAG    MASS        X           Y           Z
   0 N   7.0000    0    14.007    8.578920   -0.283950    3.896179
   1 C   6.0000    0    12.011    6.569427    0.073365    3.174717
   2 C   6.0000    0    12.011    4.097694    0.389702    2.205534
   3 C   6.0000    0    12.011    3.100988   -1.318386    0.591396
   4 C   6.0000    0    12.011    0.589432   -0.965752   -0.364491
   5 C   6.0000    0    12.011   -0.550624   -2.657511   -2.040151
   6 C   6.0000    0    12.011   -2.974687   -2.215597   -2.897930
   7 C   6.0000    0    12.011   -4.293760   -0.077609   -2.093708
   8 O   8.0000    0    15.999   -6.665008    0.263321   -2.993600
   9 C   6.0000    0    12.011   -3.195967    1.629305   -0.428612
  10 C   6.0000    0    12.011   -0.762615    1.162621    0.416033
  11 O   8.0000    0    15.999    0.266446    2.892414    2.063281
  12 C   6.0000    0    12.011    2.655563    2.627845    3.018852
  13 O   8.0000    0    15.999    3.462503    4.195362    4.459709
  14 H   1.0000    0     1.008    4.146082   -2.966217   -0.014585
  15 H   1.0000    0     1.008    0.444720   -4.318058   -2.678142
  16 H   1.0000    0     1.008   -3.863382   -3.513610   -4.191600
  17 H   1.0000    0     1.008   -7.368940    1.800443   -2.301939
  18 H   1.0000    0     1.008   -4.186789    3.292337    0.212639
  19 O   8.0000    0    15.999    7.884394   -4.323059   -8.646167
  20 H   1.0000    0     1.008    6.428859   -5.411461   -8.644116
  21 H   1.0000    0     1.008    9.309220   -5.451234   -8.648340

      -----------------------------------------------------------      
     |                   =====================                   |     
     |                           x T B                           |     
     |                   =====================                   |     
     |                         S. Grimme                         |     
     |          Mulliken Center for Theoretical Chemistry        |     
     |                    University of Bonn                     |     
      -----------------------------------------------------------      

   * xtb version 6.6.1 (8d0f1dd) compiled by 'stahn@M-Bot' on 2023-08-01

   xtb is free software: you can redistribute it and/or modify it under
   the terms of the GNU Lesser General Public License as published by
   the Free Software Foundation, either version 3 of the License, or
   (at your option) any later version.
   
   xtb is distributed in the hope that it will be useful,
   but WITHOUT ANY WARRANTY; without even the implied warranty of
   MERCHANTABILITY or FITNESS FOR A PARTICULAR PURPOSE.  See the
   GNU Lesser General Public License for more details.
   
   Cite this work as:
   * C. Bannwarth, E. Caldeweyher, S. Ehlert, A. Hansen, P. Pracht,
     J. Seibert, S. Spicher, S. Grimme, WIREs Comput. Mol. Sci., 2020, 11,
     e01493. DOI: 10.1002/wcms.1493
   
   for GFN2-xTB:
   * C. Bannwarth, S. Ehlert and S. Grimme., J. Chem. Theory Comput., 2019,
     15, 1652-1671. DOI: 10.1021/acs.jctc.8b01176
   for GFN1-xTB:
   * S. Grimme, C. Bannwarth, P. Shushkov, J. Chem. Theory Comput., 2017,
     13, 1989-2009. DOI: 10.1021/acs.jctc.7b00118
   for GFN0-xTB:
   * P. Pracht, E. Caldeweyher, S. Ehlert, S. Grimme, ChemRxiv, 2019, preprint.
     DOI: 10.26434/chemrxiv.8326202.v1
   for GFN-FF:
   * S. Spicher and S. Grimme, Angew. Chem. Int. Ed., 2020, 59, 15665-15673.
     DOI: 10.1002/anie.202004239
   
   for ALPB and GBSA implicit solvation:
   * S. Ehlert, M. Stahn, S. Spicher, S. Grimme, J. Chem. Theory Comput.,
     2021, 17, 4250-4261. DOI: 10.1021/acs.jctc.1c00471
   
   for DFT-D4:
   * E. Caldeweyher, C. Bannwarth and S. Grimme, J. Chem. Phys., 2017,
     147, 034112. DOI: 10.1063/1.4993215
   * E. Caldeweyher, S. Ehlert, A. Hansen, H. Neugebauer, S. Spicher,
     C. Bannwarth and S. Grimme, J. Chem. Phys., 2019, 150, 154122.
     DOI: 10.1063/1.5090222
   * E. Caldeweyher, J.-M. Mewes, S. Ehlert and S. Grimme, Phys. Chem. Chem. Phys.
     2020, 22, 8499-8512. DOI: 10.1039/D0CP00502A
   
   for sTDA-xTB:
   * S. Grimme and C. Bannwarth, J. Chem. Phys., 2016, 145, 054103.
     DOI: 10.1063/1.4959605
   
   in the mass-spec context:
   * V. Asgeirsson, C. Bauer and S. Grimme, Chem. Sci., 2017, 8, 4879.
     DOI: 10.1039/c7sc00601b
   * J. Koopman and S. Grimme, ACS Omega 2019, 4, 12, 15120-15133.
     DOI: 10.1021/acsomega.9b02011
   
   for metadynamics refer to:
   * S. Grimme, J. Chem. Theory Comput., 2019, 155, 2847-2862
     DOI: 10.1021/acs.jctc.9b00143
   
   for SPH calculations refer to:
   * S. Spicher and S. Grimme, J. Chem. Theory Comput., 2021, 17, 1701-1714
     DOI: 10.1021/acs.jctc.0c01306
   
   with help from (in alphabetical order)
   P. Atkinson, C. Bannwarth, F. Bohle, G. Brandenburg, E. Caldeweyher
   M. Checinski, S. Dohm, S. Ehlert, S. Ehrlich, I. Gerasimov, C. Hölzer
   A. Katbashev, J. Koopman, C. Lavigne, S. Lehtola, F. März, M. Müller,
   F. Musil, H. Neugebauer, J. Pisarek, C. Plett, P. Pracht, F. Pultar,
   J. Seibert, P. Shushkov, S. Spicher, M. Stahn, M. Steiner, T. Strunk,
   J. Stückrath, T. Rose, and J. Unsleber
   
 * started run on 2025/01/14 at 20:45:34.703     

           -------------------------------------------------
          |                Calculation Setup                |
           -------------------------------------------------

          program call               : /home/jang/cal_tmp/10_orca/orca_5_0_4_linux_x86-64_shared_openmpi411/otool_xtb /home/jang/cal_tmp/10_orca/Gen_chromophore/Gen_molecular_pairs_cal/mol_1_4.xyz/input_XTB.xyz --grad -c 0 -u 0 -P 4 --namespace /home/jang/cal_tmp/10_orca/Gen_chromophore/Gen_molecular_pairs_cal/mol_1_4.xyz/input --input /home/jang/cal_tmp/10_orca/Gen_chromophore/Gen_molecular_pairs_cal/mol_1_4.xyz/input_XTB.input.tmp --acc 1.000000
          hostname                   : node02
          calculation namespace      : /home/jang/cal_tmp/10_orca/Gen_chromophore/Gen_molecular_pairs_cal/mol_1_4.xyz/input
          coordinate file            : /home/jang/cal_tmp/10_orca/Gen_chromophore/Gen_molecular_pairs_cal/mol_1_4.xyz/input_XTB.xyz
          omp threads                :                     4

   ID    Z sym.   atoms
    1    7 N      1
    2    6 C      2-8, 10, 11, 13
    3    8 O      9, 12, 14, 20
    4    1 H      15-19, 21, 22

molecular fragmentation (1/2 indicates fragments):
1111111111111111111222
# atoms in fragment 1/2:    19     3
 fragment masses (1/2) :      187.15       18.02
CMA distance (Bohr)    :  12.758
constraining FC (au)   :  0.0500

           -------------------------------------------------
          |                 G F N 2 - x T B                 |
           -------------------------------------------------

        Reference                      10.1021/acs.jctc.8b01176
      * Hamiltonian:
        H0-scaling (s, p, d)           1.850000    2.230000    2.230000
        zeta-weighting                 0.500000
      * Dispersion:
        s8                             2.700000
        a1                             0.520000
        a2                             5.000000
        s9                             5.000000
      * Repulsion:
        kExp                           1.500000    1.000000
        rExp                           1.000000
      * Coulomb:
        alpha                          2.000000
        third order                    shell-resolved
        anisotropic                    true
        a3                             3.000000
        a5                             4.000000
        cn-shift                       1.200000
        cn-exp                         4.000000
        max-rad                        5.000000

q/qsh data taken from xtbrestart
CAMM data taken from xtbrestart

          ...................................................
          :                      SETUP                      :
          :.................................................:
          :  # basis functions                  67          :
          :  # atomic orbitals                  67          :
          :  # shells                           37          :
          :  # electrons                        76          :
          :  max. iterations                   250          :
          :  Hamiltonian                  GFN2-xTB          :
          :  restarted?                       true          :
          :  GBSA solvation                  false          :
          :  PC potential                    false          :
          :  electronic temp.          300.0000000     K    :
          :  accuracy                    1.0000000          :
          :  -> integral cutoff          0.2500000E+02      :
          :  -> integral neglect         0.1000000E-07      :
          :  -> SCF convergence          0.1000000E-05 Eh   :
          :  -> wf. convergence          0.1000000E-03 e    :
          :  Broyden damping             0.4000000          :
          ...................................................

 iter      E             dE          RMSdq      gap      omega  full diag
   1    -44.7280610 -0.447281E+02  0.226E-01    2.69       0.0  T
   2    -44.7283909 -0.329879E-03  0.144E-01    2.70       1.0  T
   3    -44.7284692 -0.783026E-04  0.816E-02    2.70       1.0  T
   4    -44.7284787 -0.945887E-05  0.208E-02    2.69       1.0  T
   5    -44.7284828 -0.411798E-05  0.883E-03    2.70       2.4  T
   6    -44.7284842 -0.145255E-05  0.347E-03    2.70       6.1  T
   7    -44.7284843 -0.950442E-07  0.173E-03    2.70      12.3  T
   8    -44.7284843 -0.119399E-07  0.586E-04    2.70      36.4  T
   9    -44.7284843 -0.649720E-10  0.356E-04    2.70      59.9  T

   *** convergence criteria satisfied after 9 iterations ***

         #    Occupation            Energy/Eh            Energy/eV
      -------------------------------------------------------------
         1        2.0000           -0.7688889             -20.9225
       ...           ...                  ...                  ...
        32        2.0000           -0.4702171             -12.7953
        33        2.0000           -0.4608541             -12.5405
        34        2.0000           -0.4538486             -12.3498
        35        2.0000           -0.4386852             -11.9372
        36        2.0000           -0.4372318             -11.8977
        37        2.0000           -0.4241280             -11.5411
        38        2.0000           -0.4169364             -11.3454 (HOMO)
        39                         -0.3178286              -8.6486 (LUMO)
        40                         -0.2698178              -7.3421
        41                         -0.2457632              -6.6876
        42                         -0.2235879              -6.0841
        43                         -0.2166864              -5.8963
       ...                                ...                  ...
        67                          1.1625073              31.6334
      -------------------------------------------------------------
                  HL-Gap            0.0991078 Eh            2.6969 eV
             Fermi-level           -0.3673825 Eh           -9.9970 eV

 SCC (total)                   0 d,  0 h,  0 min,  0.036 sec
 SCC setup                      ...        0 min,  0.000 sec (  1.067%)
 Dispersion                     ...        0 min,  0.000 sec (  1.075%)
 classical contributions        ...        0 min,  0.000 sec (  0.154%)
 integral evaluation            ...        0 min,  0.003 sec (  7.386%)
 iterations                     ...        0 min,  0.027 sec ( 75.709%)
 molecular gradient             ...        0 min,  0.005 sec ( 13.661%)
 printout                       ...        0 min,  0.000 sec (  0.766%)

         :::::::::::::::::::::::::::::::::::::::::::::::::::::
         ::                     SUMMARY                     ::
         :::::::::::::::::::::::::::::::::::::::::::::::::::::
         :: total energy             -44.118210844297 Eh    ::
         :: gradient norm              0.038919481697 Eh/a0 ::
         :: HOMO-LUMO gap              2.696859506209 eV    ::
         ::.................................................::
         :: SCC energy               -44.728484347703 Eh    ::
         :: -> isotropic ES            0.100239996425 Eh    ::
         :: -> anisotropic ES          0.003350847592 Eh    ::
         :: -> anisotropic XC          0.020499843710 Eh    ::
         :: -> dispersion             -0.019528524789 Eh    ::
         :: repulsion energy           0.610284485593 Eh    ::
         :: add. restraining           0.000000000000 Eh    ::
         :: total charge               0.000000000000 e     ::
         :::::::::::::::::::::::::::::::::::::::::::::::::::::


Property printout bound to 'properties.out'

           -------------------------------------------------
          | TOTAL ENERGY              -44.118210844297 Eh   |
          | GRADIENT NORM               0.038919481697 Eh/α |
          | HOMO-LUMO GAP               2.696859506209 eV   |
           -------------------------------------------------

------------------------------------------------------------------------
 * finished run on 2025/01/14 at 20:45:35.263     
------------------------------------------------------------------------
 total:
 * wall-time:     0 d,  0 h,  0 min,  0.559 sec
 *  cpu-time:     0 d,  0 h,  0 min,  1.094 sec
 * ratio c/w:     1.957 speedup
 SCF:
 * wall-time:     0 d,  0 h,  0 min,  0.036 sec
 *  cpu-time:     0 d,  0 h,  0 min,  0.138 sec
 * ratio c/w:     3.810 speedup


-------------------------   --------------------
FINAL SINGLE POINT ENERGY       -44.118210844300
-------------------------   --------------------

------------------------------------------------------------------------------
                         ORCA GEOMETRY RELAXATION STEP
------------------------------------------------------------------------------

Reading the OPT-File                    .... done
Getting information on internals        .... done
Copying old internal coords+grads       .... done
Making the new internal coordinates     .... (new redundants).... done
Validating the new internal coordinates .... (new redundants).... done
Calculating the B-matrix                .... done
Calculating the G,G- and P matrices     .... done
Transforming gradient to internals      .... done
Projecting the internal gradient        .... done
Number of atoms                         ....  22
Number of internal coordinates          .... 184
Current Energy                          ....   -44.118210844 Eh
Current gradient norm                   ....     0.038919482 Eh/bohr
Maximum allowed component of the step   ....  0.300
Current trust radius                    ....  0.300
Updating the Hessian (BFGS)             .... done
Forming the augmented Hessian           .... done
Diagonalizing the augmented Hessian     .... done
Last element of RFO vector              ....  0.995608625
Lowest eigenvalues of augmented Hessian:
 -0.001758801  0.000577092  0.011096832  0.016355253  0.017925419
Length of the computed step             ....  0.094026291
The final length of the internal step   ....  0.094026291
Converting the step to cartesian space:
 Initial RMS(Int)=    0.0069317101
Transforming coordinates:
 Iter   0:  RMS(Cart)=    0.0137777963 RMS(Int)=    0.9262979189
 Iter   1:  RMS(Cart)=    0.0001123754 RMS(Int)=    0.0000623583
 Iter   2:  RMS(Cart)=    0.0000044952 RMS(Int)=    0.0000025380
 Iter   3:  RMS(Cart)=    0.0000019876 RMS(Int)=    0.0000011691
 Iter   4:  RMS(Cart)=    0.0000009836 RMS(Int)=    0.0000005792
 Iter   5:  RMS(Cart)=    0.0000004874 RMS(Int)=    0.0000002870
 Iter   6:  RMS(Cart)=    0.0000002415 RMS(Int)=    0.0000001422
 Iter   7:  RMS(Cart)=    0.0000001197 RMS(Int)=    0.0000000705
 Iter   8:  RMS(Cart)=    0.0000000593 RMS(Int)=    0.0000000349
done
Storing new coordinates                 .... done

                                .--------------------.
          ----------------------|Geometry convergence|-------------------------
          Item                value                   Tolerance       Converged
          ---------------------------------------------------------------------
          Energy change      -0.0060320663            0.0000050000      NO
          RMS gradient        0.0017352688            0.0001000000      NO
          MAX gradient        0.0133077137            0.0003000000      NO
          RMS step            0.0069317101            0.0020000000      NO
          MAX step            0.0400212869            0.0040000000      NO
          ........................................................
          Max(Bonds)      0.0212      Max(Angles)    1.17
          Max(Dihed)        1.15      Max(Improp)    0.00
          ---------------------------------------------------------------------

The optimization has not yet converged - more geometry cycles are needed


    ---------------------------------------------------------------------------
                         Redundant Internal Coordinates
                            (Angstroem and degrees)

        Definition                    Value    dE/dq     Step     New-Value
    ----------------------------------------------------------------------------
     1. B(C   1,N   0)                1.1455  0.000458 -0.0015    1.1440   
     2. B(C   2,C   1)                1.4149  0.001185 -0.0020    1.4129   
     3. B(C   3,C   2)                1.3508 -0.006232  0.0071    1.3579   
     4. B(C   4,C   3)                1.4343  0.006154 -0.0098    1.4245   
     5. B(C   5,C   4)                1.3970 -0.002751  0.0037    1.4007   
     6. B(C   6,C   5)                1.3807  0.005818 -0.0085    1.3722   
     7. B(C   7,C   6)                1.3958 -0.003725  0.0043    1.4001   
     8. B(O   8,C   7)                1.3542  0.004407 -0.0058    1.3484   
     9. B(C   9,C   7)                1.3892 -0.000503  0.0004    1.3896   
    10. B(C  10,C   9)                1.3852 -0.001208  0.0009    1.3862   
    11. B(C  10,C   4)                1.3968 -0.004434  0.0059    1.4027   
    12. B(O  11,C  10)                1.3763  0.013308 -0.0212    1.3551   
    13. B(C  12,O  11)                1.3688  0.004206 -0.0079    1.3609   
    14. B(C  12,C   2)                1.4732  0.000227 -0.0009    1.4723   
    15. B(O  13,C  12)                1.2049  0.006155 -0.0061    1.1988   
    16. B(H  14,C   3)                1.0812  0.000397 -0.0014    1.0799   
    17. B(H  15,C   5)                1.0787  0.000166 -0.0012    1.0775   
    18. B(H  16,C   6)                1.0778  0.000330 -0.0014    1.0764   
    19. B(H  17,O   8)                0.9666  0.000569 -0.0012    0.9654   
    20. B(H  18,C   9)                1.0791  0.000197 -0.0008    1.0783   
    21. B(O  19,H  15)                5.0471  0.000061  0.0032    5.0503   
    22. B(O  19,H  14)                5.0291 -0.000008 -0.0034    5.0257   
    23. B(H  20,H  15)                4.5088 -0.000209  0.0025    4.5113   
    24. B(H  20,H  14)                4.8977  0.000136 -0.0048    4.8928   
    25. B(H  20,C   5)                5.2894  0.000039  0.0014    5.2908   
    26. B(H  20,O  19)                0.9618  0.001079 -0.0023    0.9595   
    27. B(H  21,H  14)                5.4834  0.000048 -0.0028    5.4807   
    28. B(H  21,O  19)                0.9617  0.001003 -0.0022    0.9595   
    29. L(N   0,C   1,C   2,C   3, 1) 176.83 -0.001325    0.22    177.06   
    30. L(N   0,C   1,C   2,C   3, 2) 179.99  0.000090   -0.02    179.97   
    31. A(C   1,C   2,C   3)          120.73 -0.001838    0.31    121.04   
    32. A(C   3,C   2,C  12)          121.36  0.001094   -0.10    121.26   
    33. A(C   1,C   2,C  12)          117.91  0.000745   -0.22    117.69   
    34. A(C   4,C   3,H  14)          118.31 -0.000321    0.23    118.54   
    35. A(C   2,C   3,H  14)          121.83 -0.000524   -0.11    121.72   
    36. A(C   2,C   3,C   4)          119.85  0.000844   -0.12    119.74   
    37. A(C   3,C   4,C   5)          122.73 -0.002010    0.55    123.28   
    38. A(C   3,C   4,C  10)          118.38  0.001681   -0.38    117.99   
    39. A(C   5,C   4,C  10)          118.89  0.000329   -0.17    118.73   
    40. A(C   4,C   5,C   6)          120.09 -0.001608    0.37    120.46   
    41. A(C   6,C   5,H  15)          119.26 -0.000422    0.33    119.59   
    42. A(H  15,C   5,H  20)           39.45 -0.000090    0.02     39.47   
    43. A(C   4,C   5,H  15)          120.65  0.002030   -0.70    119.95   
    44. A(C   6,C   5,H  20)          118.57 -0.000356    0.21    118.78   
    45. A(C   4,C   5,H  20)          107.12  0.001717   -0.53    106.59   
    46. A(C   5,C   6,H  16)          120.42 -0.001586    0.40    120.82   
    47. A(C   7,C   6,H  16)          119.47  0.002243   -0.48    118.99   
    48. A(C   5,C   6,C   7)          120.11 -0.000656    0.08    120.19   
[...]
   123. D(C  12,O  11,C  10,C   4)      0.02  0.000003   -0.02     -0.01   
   124. D(C  12,O  11,C  10,C   9)   -179.99  0.000004   -0.02   -180.01   
   125. D(O  13,C  12,C   2,C   3)    179.94  0.000005    0.01    179.95   
   126. D(O  11,C  12,C   2,C   1)    179.91 -0.000002    0.02    179.93   
   127. D(O  11,C  12,C   2,C   3)     -0.10 -0.000003    0.01     -0.08   
   128. D(O  13,C  12,O  11,C  10)   -179.95 -0.000006    0.00   -179.94   
   129. D(C   2,C  12,O  11,C  10)      0.08  0.000001   -0.00      0.08   
   130. D(O  13,C  12,C   2,C   1)     -0.05  0.000006    0.01     -0.04   
   131. D(H  21,H  14,C   3,C   4)   -179.56  0.000005   -0.02   -179.58   
   132. D(H  21,H  14,C   3,C   2)      0.53  0.000005   -0.04      0.49   
   133. D(H  20,H  14,C   3,C   4)   -179.82  0.000008   -0.07   -179.89   
   134. D(H  20,H  14,C   3,C   2)      0.27  0.000007   -0.09      0.17   
   135. D(O  19,H  14,C   3,C   4)   -179.38  0.000006   -0.05   -179.43   
   136. D(O  19,H  14,C   3,C   2)      0.71  0.000006   -0.07      0.64   
   137. D(H  20,H  15,C   5,C   6)    179.82 -0.000002    0.03    179.86   
   138. D(H  20,H  15,C   5,C   4)     -0.33 -0.000017    0.08     -0.25   
   139. D(O  19,H  15,C   5,H  20)      0.20  0.000001   -0.01      0.19   
   140. D(O  19,H  15,C   5,C   6)   -179.98 -0.000000    0.03   -179.95   
   141. D(O  19,H  15,C   5,C   4)     -0.14 -0.000015    0.07     -0.06   
   142. D(H  15,O  19,H  14,C   3)    179.04 -0.000007    0.09    179.13   
   143. D(H  21,O  19,H  14,H  20)    178.02  0.000001    0.00    178.02   
   144. D(H  21,O  19,H  14,C   3)     -0.40 -0.000003    0.07     -0.33   
   145. D(H  20,O  19,H  14,H  21)   -178.02 -0.000001   -0.00   -178.02   
   146. D(H  15,O  19,H  14,H  20)     -2.54 -0.000003    0.03     -2.51   
   147. D(H  20,O  19,H  14,C   3)   -178.42 -0.000005    0.07   -178.35   
   148. D(H  14,O  19,H  15,H  20)    178.75 -0.000002    0.02    178.76   
   149. D(H  14,O  19,H  15,C   5)     -0.24  0.000005   -0.02     -0.26   
   150. D(H  21,O  19,H  15,H  20)    179.44  0.000004   -0.01    179.43   
   151. D(H  21,O  19,H  15,C   5)      0.45  0.000011   -0.05      0.40   
   152. D(H  20,O  19,H  15,C   5)   -178.98  0.000007   -0.04   -179.02   
   153. D(H  15,O  19,H  14,H  21)    179.44 -0.000004    0.03    179.46   
   154. D(H  15,H  20,O  19,H  14)     -1.58 -0.000002    0.02     -1.57   
   155. D(H  14,H  20,O  19,H  15)      1.58  0.000002   -0.02      1.57   
   156. D(H  14,H  20,O  19,H  21)   -177.95 -0.000001   -0.00   -177.95   
   157. D(C   5,H  20,O  19,H  15)      0.31  0.000002   -0.01      0.30   
   158. D(C   5,H  20,O  19,H  21)   -179.22 -0.000001    0.00   -179.22   
   159. D(H  14,H  20,H  15,O  19)     -0.96 -0.000001    0.01     -0.95   
   160. D(H  14,H  20,H  15,C   5)      0.16  0.000007   -0.03      0.13   
   161. D(O  19,H  20,H  15,C   5)      1.12  0.000008   -0.04      1.08   
   162. D(H  15,H  20,H  14,H  21)    179.17 -0.000003    0.03    179.19   
   163. D(H  15,H  20,H  14,O  19)    177.63 -0.000003    0.03    177.66   
   164. D(H  15,H  20,H  14,C   3)    179.60 -0.000008    0.11    179.71   
   165. D(C   5,H  20,H  14,H  21)    179.25 -0.000000    0.01    179.26   
   166. D(C   5,H  20,H  14,O  19)    177.71  0.000001    0.01    177.72   
   167. D(C   5,H  20,H  14,C   3)    179.68 -0.000005    0.10    179.78   
   168. D(O  19,H  20,H  14,H  21)      1.54 -0.000001   -0.00      1.54   
   169. D(O  19,H  20,H  14,C   3)      1.97 -0.000006    0.08      2.06   
   170. D(C   5,H  20,H  15,O  19)     -1.12 -0.000008    0.04     -1.08   
   171. D(H  15,H  20,C   5,C   6)     -0.63 -0.000006    0.12     -0.51   
   172. D(H  15,H  20,C   5,C   4)    179.69 -0.000015    0.07    179.77   
   173. D(H  14,H  20,C   5,H  15)   -179.77  0.000010   -0.04   -179.81   
   174. D(C   5,H  20,O  19,H  14)     -1.27  0.000001    0.00     -1.27   
   175. D(H  14,H  20,C   5,C   6)    179.59  0.000004    0.08    179.67   
   176. D(H  14,H  20,C   5,C   4)     -0.08 -0.000006    0.03     -0.04   
   177. D(O  19,H  20,C   5,H  15)   -178.64  0.000009   -0.05   -178.69   
   178. D(H  15,H  20,O  19,H  21)   -179.53 -0.000003    0.01   -179.52   
   179. D(O  19,H  20,C   5,C   6)   -179.28  0.000004    0.07   -179.21   
   180. D(O  19,H  20,C   5,C   4)      1.05 -0.000006    0.03      1.08   
   181. D(H  14,H  21,O  19,H  15)     -0.35 -0.000002    0.01     -0.33   
   182. D(H  14,H  21,O  19,H  20)    179.19  0.000000    0.00    179.19   
   183. D(O  19,H  21,H  14,H  20)     -0.49  0.000000    0.00     -0.49   
   184. D(O  19,H  21,H  14,C   3)    179.74 -0.000002    0.05    179.78   
    ----------------------------------------------------------------------------
                 *******************************************************
                 *** FINAL ENERGY EVALUATION AT THE STATIONARY POINT ***
                 ***               (AFTER  113 CYCLES)               ***
                 *******************************************************
---------------------------------
CARTESIAN COORDINATES (ANGSTROEM)
---------------------------------
  N     4.841857   -0.064016    0.429098
  C     3.707309    0.085146    0.349533
  C     2.311956    0.206824    0.192565
  C     1.643187   -0.630152   -0.649393
  C     0.236637   -0.502339   -0.803042
  C    -0.530147   -1.321160   -1.646850
  C    -1.883984   -1.146013   -1.751634
  C    -2.524556   -0.138523   -1.011650
  O    -3.856464   -0.009766   -1.152591
  C    -1.787796    0.682577   -0.170913
  C    -0.413840    0.504093   -0.064739
  O     0.261199    1.325923    0.765472
  C     1.617896    1.248972    0.955525
  O     2.128789    2.024903    1.716910
  H     2.177524   -1.390862   -1.202394
  H    -0.029690   -2.093293   -2.210175
  H    -2.486046   -1.766640   -2.394735
  H    -4.192350    0.708994   -0.601398
  H    -2.258878    1.463252    0.407911
  O     4.142643   -2.383994   -1.671094
  H     4.738994   -3.000367   -2.101052
  H     4.682693   -1.834211   -1.093712

----------------------------
CARTESIAN COORDINATES (A.U.)
----------------------------
  NO LB    ZA    FRAG    MASS        X           Y           Z
   0 N   7.0000    0    14.007    9.149784   -0.120973    0.810878
   1 C   6.0000    0    12.011    7.005799    0.160903    0.660521
   2 C   6.0000    0    12.011    4.368963    0.390841    0.363896
   3 C   6.0000    0    12.011    3.105173   -1.190814   -1.227176
   4 C   6.0000    0    12.011    0.447180   -0.949282   -1.517529
   5 C   6.0000    0    12.011   -1.001832   -2.496630   -3.112096
   6 C   6.0000    0    12.011   -3.560214   -2.165650   -3.310109
   7 C   6.0000    0    12.011   -4.770720   -0.261771   -1.911741
   8 O   8.0000    0    15.999   -7.287661   -0.018454   -2.178081
   9 C   6.0000    0    12.011   -3.378444    1.289883   -0.322979
  10 C   6.0000    0    12.011   -0.782045    0.952598   -0.122338
  11 O   8.0000    0    15.999    0.493594    2.505631    1.446532
  12 C   6.0000    0    12.011    3.057381    2.360214    1.805681
  13 O   8.0000    0    15.999    4.022829    3.826511    3.244491
  14 H   1.0000    0     1.008    4.114924   -2.628347   -2.272195
  15 H   1.0000    0     1.008   -0.056107   -3.955751   -4.176625
  16 H   1.0000    0     1.008   -4.697946   -3.338467   -4.525392
  17 H   1.0000    0     1.008   -7.922393    1.339805   -1.136478
  18 H   1.0000    0     1.008   -4.268661    2.765146    0.770840
  19 O   8.0000    0    15.999    7.828461   -4.505095   -3.157910
  20 H   1.0000    0     1.008    8.955401   -5.669872   -3.970414
  21 H   1.0000    0     1.008    8.849008   -3.466156   -2.066815

      -----------------------------------------------------------      
     |                   =====================                   |     
     |                           x T B                           |     
     |                   =====================                   |     
     |                         S. Grimme                         |     
     |          Mulliken Center for Theoretical Chemistry        |     
     |                    University of Bonn                     |     
      -----------------------------------------------------------      

   * xtb version 6.6.1 (8d0f1dd) compiled by 'stahn@M-Bot' on 2023-08-01

   xtb is free software: you can redistribute it and/or modify it under
   the terms of the GNU Lesser General Public License as published by
   the Free Software Foundation, either version 3 of the License, or
   (at your option) any later version.
   
   xtb is distributed in the hope that it will be useful,
   but WITHOUT ANY WARRANTY; without even the implied warranty of
   MERCHANTABILITY or FITNESS FOR A PARTICULAR PURPOSE.  See the
   GNU Lesser General Public License for more details.
   
   Cite this work as:
   * C. Bannwarth, E. Caldeweyher, S. Ehlert, A. Hansen, P. Pracht,
     J. Seibert, S. Spicher, S. Grimme, WIREs Comput. Mol. Sci., 2020, 11,
     e01493. DOI: 10.1002/wcms.1493
   
   for GFN2-xTB:
   * C. Bannwarth, S. Ehlert and S. Grimme., J. Chem. Theory Comput., 2019,
     15, 1652-1671. DOI: 10.1021/acs.jctc.8b01176
   for GFN1-xTB:
   * S. Grimme, C. Bannwarth, P. Shushkov, J. Chem. Theory Comput., 2017,
     13, 1989-2009. DOI: 10.1021/acs.jctc.7b00118
   for GFN0-xTB:
   * P. Pracht, E. Caldeweyher, S. Ehlert, S. Grimme, ChemRxiv, 2019, preprint.
     DOI: 10.26434/chemrxiv.8326202.v1
   for GFN-FF:
   * S. Spicher and S. Grimme, Angew. Chem. Int. Ed., 2020, 59, 15665-15673.
     DOI: 10.1002/anie.202004239
   
   for ALPB and GBSA implicit solvation:
   * S. Ehlert, M. Stahn, S. Spicher, S. Grimme, J. Chem. Theory Comput.,
     2021, 17, 4250-4261. DOI: 10.1021/acs.jctc.1c00471
   
   for DFT-D4:
   * E. Caldeweyher, C. Bannwarth and S. Grimme, J. Chem. Phys., 2017,
     147, 034112. DOI: 10.1063/1.4993215
   * E. Caldeweyher, S. Ehlert, A. Hansen, H. Neugebauer, S. Spicher,
     C. Bannwarth and S. Grimme, J. Chem. Phys., 2019, 150, 154122.
     DOI: 10.1063/1.5090222
   * E. Caldeweyher, J.-M. Mewes, S. Ehlert and S. Grimme, Phys. Chem. Chem. Phys.
     2020, 22, 8499-8512. DOI: 10.1039/D0CP00502A
   
   for sTDA-xTB:
   * S. Grimme and C. Bannwarth, J. Chem. Phys., 2016, 145, 054103.
     DOI: 10.1063/1.4959605
   
   in the mass-spec context:
   * V. Asgeirsson, C. Bauer and S. Grimme, Chem. Sci., 2017, 8, 4879.
     DOI: 10.1039/c7sc00601b
   * J. Koopman and S. Grimme, ACS Omega 2019, 4, 12, 15120-15133.
     DOI: 10.1021/acsomega.9b02011
   
   for metadynamics refer to:
   * S. Grimme, J. Chem. Theory Comput., 2019, 155, 2847-2862
     DOI: 10.1021/acs.jctc.9b00143
   
   for SPH calculations refer to:
   * S. Spicher and S. Grimme, J. Chem. Theory Comput., 2021, 17, 1701-1714
     DOI: 10.1021/acs.jctc.0c01306
   
   with help from (in alphabetical order)
   P. Atkinson, C. Bannwarth, F. Bohle, G. Brandenburg, E. Caldeweyher
   M. Checinski, S. Dohm, S. Ehlert, S. Ehrlich, I. Gerasimov, C. Hölzer
   A. Katbashev, J. Koopman, C. Lavigne, S. Lehtola, F. März, M. Müller,
   F. Musil, H. Neugebauer, J. Pisarek, C. Plett, P. Pracht, F. Pultar,
   J. Seibert, P. Shushkov, S. Spicher, M. Stahn, M. Steiner, T. Strunk,
   J. Stückrath, T. Rose, and J. Unsleber
   
 * started run on 2025/01/14 at 21:03:15.139     

           -------------------------------------------------
          |                Calculation Setup                |
           -------------------------------------------------

          program call               : /home/jang/cal_tmp/10_orca/orca_5_0_4_linux_x86-64_shared_openmpi411/otool_xtb /home/jang/cal_tmp/10_orca/Gen_chromophore/Gen_molecular_pairs_cal/mol_1_4.xyz/input_XTB.xyz --grad -c 0 -u 0 -P 4 --namespace /home/jang/cal_tmp/10_orca/Gen_chromophore/Gen_molecular_pairs_cal/mol_1_4.xyz/input --input /home/jang/cal_tmp/10_orca/Gen_chromophore/Gen_molecular_pairs_cal/mol_1_4.xyz/input_XTB.input.tmp --acc 1.000000
          hostname                   : node02
          calculation namespace      : /home/jang/cal_tmp/10_orca/Gen_chromophore/Gen_molecular_pairs_cal/mol_1_4.xyz/input
          coordinate file            : /home/jang/cal_tmp/10_orca/Gen_chromophore/Gen_molecular_pairs_cal/mol_1_4.xyz/input_XTB.xyz
          omp threads                :                     4

   ID    Z sym.   atoms
    1    7 N      1
    2    6 C      2-8, 10, 11, 13
    3    8 O      9, 12, 14, 20
    4    1 H      15-19, 21, 22

molecular fragmentation (1/2 indicates fragments):
1111111111111111111222
# atoms in fragment 1/2:    19     3
 fragment masses (1/2) :      187.15       18.02
CMA distance (Bohr)    :   9.206
constraining FC (au)   :  0.0500

           -------------------------------------------------
          |                 G F N 2 - x T B                 |
           -------------------------------------------------

        Reference                      10.1021/acs.jctc.8b01176
      * Hamiltonian:
        H0-scaling (s, p, d)           1.850000    2.230000    2.230000
        zeta-weighting                 0.500000
      * Dispersion:
        s8                             2.700000
        a1                             0.520000
        a2                             5.000000
        s9                             5.000000
      * Repulsion:
        kExp                           1.500000    1.000000
        rExp                           1.000000
      * Coulomb:
        alpha                          2.000000
        third order                    shell-resolved
        anisotropic                    true
        a3                             3.000000
        a5                             4.000000
        cn-shift                       1.200000
        cn-exp                         4.000000
        max-rad                        5.000000

q/qsh data taken from xtbrestart
CAMM data taken from xtbrestart

          ...................................................
          :                      SETUP                      :
          :.................................................:
          :  # basis functions                  67          :
          :  # atomic orbitals                  67          :
          :  # shells                           37          :
          :  # electrons                        76          :
          :  max. iterations                   250          :
          :  Hamiltonian                  GFN2-xTB          :
          :  restarted?                       true          :
          :  GBSA solvation                  false          :
          :  PC potential                    false          :
          :  electronic temp.          300.0000000     K    :
          :  accuracy                    1.0000000          :
          :  -> integral cutoff          0.2500000E+02      :
          :  -> integral neglect         0.1000000E-07      :
          :  -> SCF convergence          0.1000000E-05 Eh   :
          :  -> wf. convergence          0.1000000E-03 e    :
          :  Broyden damping             0.4000000          :
          ...................................................

 iter      E             dE          RMSdq      gap      omega  full diag
   1    -44.7395865 -0.447396E+02  0.312E-03    2.65       0.0  T
   2    -44.7395866 -0.788378E-08  0.180E-03    2.65      11.9  T
   3    -44.7395865  0.668587E-08  0.748E-04    2.65      28.5  T
   4    -44.7395866 -0.780347E-08  0.211E-04    2.65     101.1  T

   *** convergence criteria satisfied after 4 iterations ***

         #    Occupation            Energy/Eh            Energy/eV
      -------------------------------------------------------------
         1        2.0000           -0.7687764             -20.9195
       ...           ...                  ...                  ...
        32        2.0000           -0.4632014             -12.6044
        33        2.0000           -0.4570557             -12.4371
        34        2.0000           -0.4505244             -12.2594
        35        2.0000           -0.4398114             -11.9679
        36        2.0000           -0.4337029             -11.8017
        37        2.0000           -0.4216366             -11.4733
        38        2.0000           -0.4116509             -11.2016 (HOMO)
        39                         -0.3143967              -8.5552 (LUMO)
        40                         -0.2651354              -7.2147
        41                         -0.2397414              -6.5237
        42                         -0.2211728              -6.0184
        43                         -0.2191782              -5.9641
       ...                                ...                  ...
        67                          1.1598683              31.5616
      -------------------------------------------------------------
                  HL-Gap            0.0972542 Eh            2.6464 eV
             Fermi-level           -0.3630238 Eh           -9.8784 eV

 SCC (total)                   0 d,  0 h,  0 min,  0.036 sec
 SCC setup                      ...        0 min,  0.000 sec (  0.720%)
 Dispersion                     ...        0 min,  0.000 sec (  0.814%)
 classical contributions        ...        0 min,  0.000 sec (  0.141%)
 integral evaluation            ...        0 min,  0.002 sec (  4.909%)
 iterations                     ...        0 min,  0.030 sec ( 83.217%)
 molecular gradient             ...        0 min,  0.003 sec (  9.426%)
 printout                       ...        0 min,  0.000 sec (  0.587%)

         :::::::::::::::::::::::::::::::::::::::::::::::::::::
         ::                     SUMMARY                     ::
         :::::::::::::::::::::::::::::::::::::::::::::::::::::
         :: total energy             -44.128209819963 Eh    ::
         :: gradient norm              0.000462254649 Eh/a0 ::
         :: HOMO-LUMO gap              2.646422219201 eV    ::
         ::.................................................::
         :: SCC energy               -44.739586554977 Eh    ::
         :: -> isotropic ES            0.100276872052 Eh    ::
         :: -> anisotropic ES         -0.000736959233 Eh    ::
         :: -> anisotropic XC          0.019743941034 Eh    ::
         :: -> dispersion             -0.021091647722 Eh    ::
         :: repulsion energy           0.611417710604 Eh    ::
         :: add. restraining           0.000000000000 Eh    ::
         :: total charge              -0.000000000000 e     ::
         :::::::::::::::::::::::::::::::::::::::::::::::::::::


Property printout bound to 'properties.out'

           -------------------------------------------------
          | TOTAL ENERGY              -44.128209819963 Eh   |
          | GRADIENT NORM               0.000462254649 Eh/α |
          | HOMO-LUMO GAP               2.646422219201 eV   |
           -------------------------------------------------

------------------------------------------------------------------------
 * finished run on 2025/01/14 at 21:03:16.733     
------------------------------------------------------------------------
 total:
 * wall-time:     0 d,  0 h,  0 min,  1.591 sec
 *  cpu-time:     0 d,  0 h,  0 min,  1.629 sec
 * ratio c/w:     1.024 speedup
 SCF:
 * wall-time:     0 d,  0 h,  0 min,  0.036 sec
 *  cpu-time:     0 d,  0 h,  0 min,  0.128 sec
 * ratio c/w:     3.529 speedup


-------------------------   --------------------
FINAL SINGLE POINT ENERGY       -44.128209819960
-------------------------   --------------------

                                *** OPTIMIZATION RUN DONE ***

Timings for individual modules:

Sum of individual times         ...      295.474 sec (=   4.925 min)
Geometry relaxation             ...       98.543 sec (=   1.642 min)  33.4 %
XTB module                      ...      196.931 sec (=   3.282 min)  66.6 %
                             ****ORCA TERMINATED NORMALLY****
TOTAL RUN TIME: 0 days 0 hours 18 minutes 22 seconds 483 msec
