
                                 *****************
                                 * O   R   C   A *
                                 *****************

                                            #,                                       
                                            ###                                      
                                            ####                                     
                                            #####                                    
                                            ######                                   
                                           ########,                                 
                                     ,,################,,,,,                         
                               ,,#################################,,                 
                          ,,##########################################,,             
                       ,#########################################, ''#####,          
                    ,#############################################,,   '####,        
                  ,##################################################,,,,####,       
                ,###########''''           ''''###############################       
              ,#####''   ,,,,##########,,,,          '''####'''          '####       
            ,##' ,,,,###########################,,,                        '##       
           ' ,,###''''                  '''############,,,                           
         ,,##''                                '''############,,,,        ,,,,,,###''
      ,#''                                            '''#######################'''  
     '                                                          ''''####''''         
             ,#######,   #######,   ,#######,      ##                                
            ,#'     '#,  ##    ##  ,#'     '#,    #''#        ######   ,####,        
            ##       ##  ##   ,#'  ##            #'  '#       #        #'  '#        
            ##       ##  #######   ##           ,######,      #####,   #    #        
            '#,     ,#'  ##    ##  '#,     ,#' ,#      #,         ##   #,  ,#        
             '#######'   ##     ##  '#######'  #'      '#     #####' # '####'        



                  #######################################################
                  #                        -***-                        #
                  #          Department of theory and spectroscopy      #
                  #    Directorship and core code : Frank Neese         #
                  #        Max Planck Institute fuer Kohlenforschung    #
                  #                Kaiser Wilhelm Platz 1               #
                  #                 D-45470 Muelheim/Ruhr               #
                  #                      Germany                        #
                  #                                                     #
                  #                  All rights reserved                #
                  #                        -***-                        #
                  #######################################################


                         Program Version 5.0.4 -  RELEASE  -


 With contributions from (in alphabetic order):
   Daniel Aravena         : Magnetic Suceptibility
   Michael Atanasov       : Ab Initio Ligand Field Theory (pilot matlab implementation)
   Alexander A. Auer      : GIAO ZORA, VPT2 properties, NMR spectrum
   Ute Becker             : Parallelization
   Giovanni Bistoni       : ED, misc. LED, open-shell LED, HFLD
   Martin Brehm           : Molecular dynamics
   Dmytro Bykov           : SCF Hessian
   Vijay G. Chilkuri      : MRCI spin determinant printing, contributions to CSF-ICE
   Dipayan Datta          : RHF DLPNO-CCSD density
   Achintya Kumar Dutta   : EOM-CC, STEOM-CC
   Dmitry Ganyushin       : Spin-Orbit,Spin-Spin,Magnetic field MRCI
   Miquel Garcia          : C-PCM and meta-GGA Hessian, CC/C-PCM, Gaussian charge scheme
   Yang Guo               : DLPNO-NEVPT2, F12-NEVPT2, CIM, IAO-localization
   Andreas Hansen         : Spin unrestricted coupled pair/coupled cluster methods
   Benjamin Helmich-Paris : MC-RPA, TRAH-SCF, COSX integrals
   Lee Huntington         : MR-EOM, pCC
   Robert Izsak           : Overlap fitted RIJCOSX, COSX-SCS-MP3, EOM
   Marcus Kettner         : VPT2
   Christian Kollmar      : KDIIS, OOCD, Brueckner-CCSD(T), CCSD density, CASPT2, CASPT2-K
   Simone Kossmann        : Meta GGA functionals, TD-DFT gradient, OOMP2, MP2 Hessian
   Martin Krupicka        : Initial AUTO-CI
   Lucas Lang             : DCDCAS
   Marvin Lechner         : AUTO-CI (C++ implementation), FIC-MRCC
   Dagmar Lenk            : GEPOL surface, SMD
   Dimitrios Liakos       : Extrapolation schemes; Compound Job, initial MDCI parallelization
   Dimitrios Manganas     : Further ROCIS development; embedding schemes
   Dimitrios Pantazis     : SARC Basis sets
   Anastasios Papadopoulos: AUTO-CI, single reference methods and gradients
   Taras Petrenko         : DFT Hessian,TD-DFT gradient, ASA, ECA, R-Raman, ABS, FL, XAS/XES, NRVS
   Peter Pinski           : DLPNO-MP2, DLPNO-MP2 Gradient
   Christoph Reimann      : Effective Core Potentials
   Marius Retegan         : Local ZFS, SOC
   Christoph Riplinger    : Optimizer, TS searches, QM/MM, DLPNO-CCSD(T), (RO)-DLPNO pert. Triples
   Tobias Risthaus        : Range-separated hybrids, TD-DFT gradient, RPA, STAB
   Michael Roemelt        : Original ROCIS implementation
   Masaaki Saitow         : Open-shell DLPNO-CCSD energy and density
   Barbara Sandhoefer     : DKH picture change effects
   Avijit Sen             : IP-ROCIS
   Kantharuban Sivalingam : CASSCF convergence, NEVPT2, FIC-MRCI
   Bernardo de Souza      : ESD, SOC TD-DFT
   Georgi Stoychev        : AutoAux, RI-MP2 NMR, DLPNO-MP2 response
   Willem Van den Heuvel  : Paramagnetic NMR
   Boris Wezisla          : Elementary symmetry handling
   Frank Wennmohs         : Technical directorship


 We gratefully acknowledge several colleagues who have allowed us to
 interface, adapt or use parts of their codes:
   Stefan Grimme, W. Hujo, H. Kruse, P. Pracht,  : VdW corrections, initial TS optimization,
                  C. Bannwarth, S. Ehlert          DFT functionals, gCP, sTDA/sTD-DF
   Ed Valeev, F. Pavosevic, A. Kumar             : LibInt (2-el integral package), F12 methods
   Garnet Chan, S. Sharma, J. Yang, R. Olivares  : DMRG
   Ulf Ekstrom                                   : XCFun DFT Library
   Mihaly Kallay                                 : mrcc  (arbitrary order and MRCC methods)
   Jiri Pittner, Ondrej Demel                    : Mk-CCSD
   Frank Weinhold                                : gennbo (NPA and NBO analysis)
   Christopher J. Cramer and Donald G. Truhlar   : smd solvation model
   Lars Goerigk                                  : TD-DFT with DH, B97 family of functionals
   V. Asgeirsson, H. Jonsson                     : NEB implementation
   FAccTs GmbH                                   : IRC, NEB, NEB-TS, DLPNO-Multilevel, CI-OPT
                                                   MM, QMMM, 2- and 3-layer-ONIOM, Crystal-QMMM,
                                                   LR-CPCM, SF, NACMEs, symmetry and pop. for TD-DFT,
                                                   nearIR, NL-DFT gradient (VV10), updates on ESD,
                                                   ML-optimized integration grids
   S Lehtola, MJT Oliveira, MAL Marques          : LibXC Library
   Liviu Ungur et al                             : ANISO software


 Your calculation uses the libint2 library for the computation of 2-el integrals
 For citations please refer to: http://libint.valeyev.net

 Your ORCA version has been built with support for libXC version: 5.1.0
 For citations please refer to: https://tddft.org/programs/libxc/

 This ORCA versions uses:
   CBLAS   interface :  Fast vector & matrix operations
   LAPACKE interface :  Fast linear algebra routines
   SCALAPACK package :  Parallel linear algebra routines
   Shared memory     :  Shared parallel matrices
   BLAS/LAPACK       :  OpenBLAS 0.3.15  USE64BITINT DYNAMIC_ARCH NO_AFFINITY SkylakeX SINGLE_THREADED
        Core in use  :  SkylakeX
   Copyright (c) 2011-2014, The OpenBLAS Project




***************************************
The coordinates will be read from file: mol.xyz
***************************************


Your calculation utilizes the atom-pairwise dispersion correction
with the Becke-Johnson damping scheme (D3BJ)
Cite in your paper:
S.Grimme, S.Ehrlich, L.Goerigk, J Comput Chem, (2011), 32, 1456–1465 
S.Grimme, J.Antony, S.Ehrlich and H.Krieg, J.Chem.Phys., 132, (2010), 154104 
   

Your calculation utilizes the semiempirical GFN2-xTB method
Please cite in your paper:
C. Bannwarth, Ehlert S., S. Grimme,  J. Chem. Theory Comput., 15, (2019), 1652.
   

================================================================================

----- Orbital basis set information -----
Your calculation utilizes the basis: def2-SVP
   F. Weigend and R. Ahlrichs, Phys. Chem. Chem. Phys. 7, 3297 (2005).

----- AuxJ basis set information -----
Your calculation utilizes the auxiliary basis: def2/J
   F. Weigend, Phys. Chem. Chem. Phys. 8, 1057 (2006).

================================================================================
                                        WARNINGS
                       Please study these warnings very carefully!
================================================================================


WARNING: Geometry Optimization
  ===> : Switching off AutoStart
         For restart on a previous wavefunction, please use MOREAD

WARNING: Found dipole moment calculation with XTB calculation
  ===> : Switching off dipole moment calculation


WARNING: TRAH-SCF for XTB is not implemented!
  ===> : Turning TRAH off!

================================================================================
                                       INPUT FILE
================================================================================
NAME = /home/jang/cal_tmp/10_orca/Gen_chromophore/Gen_molecular_pairs_cal/mol_4_1.xyz/input.inp
|  1> ! B3LYP D3BJ def2-SVP TightSCF XTB Opt PAL8
|  2> 
|  3> %geom
|  4>   MaxIter 3000
|  5> end
|  6> 
|  7> * xyzfile 0 1 mol.xyz
|  8> 
|  9> %pal nprocs 4 # any number (positive integer)
| 10> end
| 11> 
| 12>                          ****END OF INPUT****
================================================================================

                       *****************************
                       * Geometry Optimization Run *
                       *****************************

Geometry optimization settings:
Update method            Update   .... BFGS
Choice of coordinates    CoordSys .... Z-matrix Internals
Initial Hessian          InHess   .... Almoef's Model

Convergence Tolerances:
Energy Change            TolE     ....  5.0000e-06 Eh
Max. Gradient            TolMAXG  ....  3.0000e-04 Eh/bohr
RMS Gradient             TolRMSG  ....  1.0000e-04 Eh/bohr
Max. Displacement        TolMAXD  ....  4.0000e-03 bohr
RMS Displacement         TolRMSD  ....  2.0000e-03 bohr
Strict Convergence                ....  False
------------------------------------------------------------------------------
                        ORCA OPTIMIZATION COORDINATE SETUP
------------------------------------------------------------------------------

The optimization will be done in new redundant internal coordinates
Making redundant internal coordinates   ...  (new redundants) done
Evaluating the initial hessian          ...  (Almloef) done
Evaluating the coordinates              ...  done
Calculating the B-matrix                .... done
Calculating the G-matrix                .... done
Diagonalizing the G-matrix              .... done
Small eigenvalue found = 1.266e-03
Small eigenvalue found = 3.366e-03
Small eigenvalue found = 1.708e-02
Small eigenvalue found = 2.158e-02
Small eigenvalue found = 2.814e-02
The first mode is                       ....  213
The number of degrees of freedom        ....  126

    -----------------------------------------------------------------
                    Redundant Internal Coordinates


    -----------------------------------------------------------------
         Definition                    Initial Value    Approx d2E/dq
    -----------------------------------------------------------------
      1. B(C   1,O   0)                  1.2849         0.823387   
      2. B(C   2,C   1)                  1.4424         0.515393   
      3. B(C   3,C   2)                  1.5207         0.386613   
      4. B(N   4,C   3)                  1.3220         0.718419   
      5. B(C   5,N   4)                  1.3751         0.591050   
      6. B(C   6,C   5)                  1.4096         0.581431   
      7. B(C   7,C   6)                  1.3985         0.605619   
      8. B(C   8,C   7)                  1.3914         0.621495   
      9. B(C   9,C   8)                  1.3992         0.604003   
     10. B(C  10,C   9)                  1.4060         0.589182   
     11. B(C  10,C   5)                  1.3887         0.627744   
     12. B(S  11,C  10)                  1.7130         0.514179   
     13. B(S  11,C   3)                  1.7484         0.451512   
     14. B(C  12,C   2)                  1.4199         0.559798   
     15. B(C  13,C  12)                  1.3980         0.606654   
     16. B(C  14,C  13)                  1.4045         0.592457   
     17. B(C  15,C  14)                  1.3944         0.614694   
     18. B(C  16,C  15)                  1.3975         0.607735   
     19. B(C  17,C  16)                  1.4037         0.594110   
     20. B(C  18,C  17)                  1.3933         0.617280   
     21. B(C  19,C  18)                  1.3931         0.617758   
     22. B(C  20,C  19)                  1.4036         0.594309   
     23. B(C  21,C  20)                  1.3932         0.617397   
     24. B(C  22,C  21)                  1.3982         0.606258   
     25. B(C  23,C  22)                  1.4152         0.569485   
     26. B(C  23,C   1)                  1.4538         0.494301   
     27. B(C  24,C  23)                  1.4187         0.562295   
     28. B(C  24,C  13)                  1.4000         0.602352   
     29. B(C  25,C  24)                  1.4263         0.546765   
     30. B(C  25,C  20)                  1.4113         0.577771   
     31. B(C  25,C  16)                  1.4162         0.567433   
     32. B(H  26,C   6)                  1.0856         0.366003   
     33. B(H  27,C   7)                  1.0864         0.364831   
     34. B(H  28,C   8)                  1.0871         0.364009   
     35. B(H  29,C   9)                  1.0848         0.367101   
     36. B(H  30,C  12)                  1.0846         0.367306   
     37. B(H  31,C  14)                  1.0872         0.363849   
     38. B(H  32,C  15)                  1.0863         0.365023   
     39. B(H  33,C  17)                  1.0869         0.364255   
     40. B(H  34,C  18)                  1.0858         0.365644   
     41. B(H  35,C  19)                  1.0871         0.363934   
     42. B(H  36,C  21)                  1.0856         0.365954   
     43. B(H  37,C  22)                  1.0902         0.359800   
     44. B(C  38,H  28)                  6.3105         0.000000   
     45. B(C  39,C  38)                  1.4619         0.479735   
     46. B(N  40,C  39)                  1.1602         1.301459   
     47. B(H  41,H  28)                  5.9377         0.000000   
     48. B(H  41,C  38)                  1.0940         0.354795   
     49. B(H  42,H  28)                  6.5091         0.000000   
     50. B(H  42,C  38)                  1.0940         0.354795   
     51. B(H  43,H  28)                  5.6893         0.000000   
     52. B(H  43,H  27)                  6.4225         0.000000   
     53. B(H  43,C   8)                  6.6790         0.000000   
     54. B(H  43,C  38)                  1.0940         0.354795   
     55. A(O   0,C   1,C  23)          120.1031         0.435681   
     56. A(C   2,C   1,C  23)          116.6813         0.403388   
     57. A(O   0,C   1,C   2)          123.2156         0.438975   
     58. A(C   1,C   2,C  12)          118.7789         0.412368   
     59. A(C   1,C   2,C   3)          122.7666         0.386380   
     60. A(C   3,C   2,C  12)          118.4546         0.391996   
     61. A(C   2,C   3,S  11)          120.8782         0.397867   
     62. A(N   4,C   3,S  11)          111.6850         0.441445   
     63. A(C   2,C   3,N   4)          127.4368         0.406959   
     64. A(C   3,N   4,C   5)          112.8428         0.436142   
     65. A(N   4,C   5,C   6)          125.9163         0.422657   
     66. A(N   4,C   5,C  10)          115.2368         0.428495   
     67. A(C   6,C   5,C  10)          118.8469         0.430043   
     68. A(C   5,C   6,C   7)          119.9255         0.427284   
     69. A(C   7,C   6,H  26)          121.4304         0.352479   
     70. A(C   5,C   6,H  26)          118.6441         0.350059   
     71. A(C   6,C   7,H  27)          119.4118         0.352287   
     72. A(C   6,C   7,C   8)          120.2737         0.432425   
     73. A(C   8,C   7,H  27)          120.3145         0.353834   
     74. A(H  28,C   8,H  43)           22.4324         0.090940   
     75. A(C   7,C   8,H  28)          119.7080         0.353699   
     76. A(C   9,C   8,H  43)          138.8347         0.091516   
     77. A(C   7,C   8,H  43)           99.2780         0.091532   
     78. A(C   7,C   8,C   9)          120.7748         0.432217   
     79. A(C   9,C   8,H  28)          119.5172         0.351994   
     80. A(C  10,C   9,H  29)          120.7670         0.351020   
     81. A(C   8,C   9,H  29)          120.9693         0.352498   
     82. A(C   8,C   9,C  10)          118.2637         0.428095   
     83. A(C   5,C  10,C   9)          121.9155         0.431067   
     84. A(C   9,C  10,S  11)          129.4026         0.438914   
     85. A(C   5,C  10,S  11)          108.6820         0.443971   
     86. A(C   3,S  11,C  10)           91.5534         0.441588   
     87. A(C   2,C  12,H  30)          120.0311         0.348037   
     88. A(C   2,C  12,C  13)          123.5018         0.424523   
     89. A(C  13,C  12,H  30)          116.4671         0.352793   
     90. A(C  12,C  13,C  14)          120.9148         0.428857   
     91. A(C  14,C  13,C  24)          119.9756         0.428310   
     92. A(C  12,C  13,C  24)          119.1096         0.430134   
     93. A(C  15,C  14,H  31)          118.8660         0.353014   
     94. A(C  13,C  14,H  31)          120.1032         0.350822   
     95. A(C  13,C  14,C  15)          121.0308         0.429871   
     96. A(C  16,C  15,H  32)          120.7100         0.352527   
     97. A(C  14,C  15,H  32)          118.9676         0.353207   
     98. A(C  14,C  15,C  16)          120.3224         0.431841   
     99. A(C  15,C  16,C  17)          121.0568         0.429209   
    100. A(C  17,C  16,C  25)          119.7812         0.423966   
    101. A(C  15,C  16,C  25)          119.1619         0.425689   
    102. A(C  18,C  17,H  33)          119.0256         0.353332   
    103. A(C  16,C  17,H  33)          120.3465         0.351053   
    104. A(C  16,C  17,C  18)          120.6279         0.430411   
    105. A(C  17,C  18,C  19)          119.8604         0.433440   
    106. A(C  19,C  18,H  34)          119.9938         0.353606   
    107. A(C  17,C  18,H  34)          120.1459         0.353560   
    108. A(C  18,C  19,C  20)          120.6277         0.430496   
    109. A(C  20,C  19,H  35)          120.1133         0.351020   
    110. A(C  18,C  19,H  35)          119.2590         0.353325   
    111. A(C  19,C  20,C  21)          121.2254         0.430451   
    112. A(C  21,C  20,C  25)          118.8670         0.428277   
    113. A(C  19,C  20,C  25)          119.9075         0.425363   
    114. A(C  20,C  21,C  22)          120.2847         0.431993   
    115. A(C  22,C  21,H  36)          118.3869         0.352534   
    116. A(C  20,C  21,H  36)          121.3284         0.353622   
    117. A(C  23,C  22,H  37)          118.3415         0.347832   
    118. A(C  21,C  22,H  37)          118.3073         0.351524   
    119. A(C  21,C  22,C  23)          123.3513         0.425779   
    120. A(C  22,C  23,C  24)          115.7296         0.420089   
    121. A(C   1,C  23,C  24)          122.4004         0.409647   
    122. A(C   1,C  23,C  22)          121.8700         0.410571   
    123. A(C  23,C  24,C  25)          121.5417         0.417053   
    124. A(C  13,C  24,C  25)          118.9302         0.422202   
    125. A(C  13,C  24,C  23)          119.5280         0.424321   
    126. A(C  16,C  25,C  24)          120.5790         0.417729   
    127. A(C  16,C  25,C  20)          119.1953         0.421858   
    128. A(C  20,C  25,C  24)          120.2257         0.419075   
    129. A(C   7,H  27,H  43)          120.6406         0.090321   
    130. A(H  42,H  28,H  43)           14.8246         0.089015   
    131. A(H  41,H  28,H  43)           17.3550         0.089024   
    132. A(C  38,H  28,H  43)            8.6198         0.089032   
    133. A(C   8,H  28,H  43)          153.3864         0.091430   
    134. A(H  41,H  28,H  42)           15.4989         0.089012   
    135. A(C  38,H  28,H  42)            9.6293         0.089016   
    136. A(C  38,H  28,H  41)            9.6388         0.089026   
    137. A(C   8,H  28,H  41)          162.2230         0.090977   
    138. A(C   8,H  28,C  38)          156.3352         0.091636   
    139. A(C   8,H  28,H  42)          147.6438         0.090229   
    140. A(H  28,C  38,H  43)           51.2058         0.091621   
    141. A(H  28,C  38,H  42)           95.6089         0.091621   
    142. A(H  28,C  38,H  41)           65.3291         0.091621   
    143. A(H  28,C  38,C  39)          152.5832         0.092244   
    144. A(H  42,C  38,H  43)          108.0977         0.289488   
    145. A(H  41,C  38,H  43)          108.0976         0.289488   
    146. A(C  39,C  38,H  43)          110.8121         0.337190   
    147. A(H  41,C  38,H  42)          108.0977         0.289488   
    148. A(C  39,C  38,H  42)          110.8122         0.337190   
    149. A(C  39,C  38,H  41)          110.8121         0.337190   
    150. L(C  38,C  39,N  40,H  43, 2) 180.0000         0.470937   
    151. L(C  38,C  39,N  40,H  43, 1) 180.0000         0.470937   
    152. A(H  28,H  41,C  38)          105.0321         0.090965   
    153. A(H  28,H  42,C  38)           74.7618         0.090222   
    154. A(H  27,H  43,H  28)           22.5876         0.089016   
    155. A(H  28,H  43,C  38)          120.1744         0.091416   
    156. A(C   8,H  43,H  27)           18.7994         0.089013   
    157. A(H  27,H  43,C  38)          136.2994         0.090313   
    158. A(C   8,H  43,C  38)          122.0933         0.090929   
    159. D(C  12,C   2,C   1,O   0)    179.9927         0.018109   
    160. D(C   3,C   2,C   1,C  23)    179.9970         0.018109   
    161. D(C   3,C   2,C   1,O   0)     -0.0062         0.018109   
    162. D(C  12,C   2,C   1,C  23)     -0.0041         0.018109   
    163. D(N   4,C   3,C   2,C  12)    179.9631         0.010321   
    164. D(N   4,C   3,C   2,C   1)     -0.0380         0.010321   
    165. D(S  11,C   3,C   2,C  12)     -0.0351         0.010321   
    166. D(S  11,C   3,C   2,C   1)    179.9638         0.010321   
    167. D(C   5,N   4,C   3,C   2)    179.9969         0.038849   
    168. D(C   5,N   4,C   3,S  11)     -0.0047         0.038849   
    169. D(C   6,C   5,N   4,C   3)   -179.9922         0.025465   
    170. D(C  10,C   5,N   4,C   3)      0.0075         0.025465   
    171. D(C   7,C   6,C   5,N   4)   -179.9975         0.023231   
    172. D(H  26,C   6,C   5,C  10)   -179.9958         0.023231   
    173. D(C   7,C   6,C   5,C  10)      0.0027         0.023231   
    174. D(H  26,C   6,C   5,N   4)      0.0040         0.023231   
    175. D(C   8,C   7,C   6,C   5)      0.0032         0.025310   
    176. D(H  27,C   7,C   6,H  26)     -0.0016         0.025310   
    177. D(C   8,C   7,C   6,H  26)   -179.9984         0.025310   
    178. D(H  27,C   7,C   6,C   5)    179.9999         0.025310   
    179. D(H  43,C   8,C   7,H  27)      9.9027         0.029053   
    180. D(H  43,C   8,C   7,C   6)   -170.1006         0.029053   
    181. D(H  28,C   8,C   7,H  27)      0.0008         0.029053   
    182. D(H  28,C   8,C   7,C   6)    179.9976         0.029053   
    183. D(C   9,C   8,C   7,H  27)    179.9980         0.029053   
    184. D(C   9,C   8,C   7,C   6)     -0.0053         0.029053   
    185. D(H  29,C   9,C   8,H  28)     -0.0005         0.027342   
    186. D(C  10,C   9,C   8,C   7)      0.0014         0.027342   
    187. D(H  29,C   9,C   8,C   7)   -179.9976         0.027342   
    188. D(C  10,C   9,C   8,H  28)    179.9986         0.027342   
    189. D(C  10,C   9,C   8,H  43)    165.0559         0.027342   
    190. D(H  29,C   9,C   8,H  43)    -14.9432         0.027342   
    191. D(S  11,C  10,C   9,H  29)      0.0039         0.023886   
    192. D(C   5,C  10,C   9,H  29)   -179.9963         0.023886   
    193. D(C   5,C  10,C   9,C   8)      0.0047         0.023886   
    194. D(C   9,C  10,C   5,C   6)     -0.0067         0.027310   
    195. D(S  11,C  10,C   5,N   4)     -0.0066         0.027310   
    196. D(S  11,C  10,C   9,C   8)   -179.9952         0.023886   
    197. D(S  11,C  10,C   5,C   6)    179.9932         0.027310   
    198. D(C   9,C  10,C   5,N   4)    179.9935         0.027310   
    199. D(C   3,S  11,C  10,C   5)      0.0032         0.005430   
    200. D(C  10,S  11,C   3,C   2)    179.9993         0.004493   
    201. D(C  10,S  11,C   3,N   4)      0.0008         0.004493   
    202. D(C   3,S  11,C  10,C   9)   -179.9970         0.005430   
    203. D(H  30,C  12,C   2,C   3)     -0.0065         0.021465   
    204. D(H  30,C  12,C   2,C   1)    179.9946         0.021465   
    205. D(C  13,C  12,C   2,C   3)    179.9982         0.021465   
    206. D(C  13,C  12,C   2,C   1)     -0.0007         0.021465   
    207. D(C  24,C  13,C  12,H  30)   -179.9906         0.025402   
    208. D(C  24,C  13,C  12,C   2)      0.0048         0.025402   
    209. D(C  14,C  13,C  12,H  30)      0.0071         0.025402   
    210. D(C  14,C  13,C  12,C   2)   -179.9975         0.025402   
    211. D(H  31,C  14,C  13,C  24)   -179.9990         0.024165   
    212. D(H  31,C  14,C  13,C  12)      0.0033         0.024165   
    213. D(C  15,C  14,C  13,C  24)      0.0000         0.024165   
    214. D(C  15,C  14,C  13,C  12)   -179.9977         0.024165   
    215. D(H  32,C  15,C  14,H  31)      0.0017         0.026119   
    216. D(H  32,C  15,C  14,C  13)   -179.9973         0.026119   
    217. D(C  16,C  15,C  14,H  31)    179.9972         0.026119   
    218. D(C  16,C  15,C  14,C  13)     -0.0019         0.026119   
    219. D(C  17,C  16,C  15,H  32)     -0.0031         0.025498   
    220. D(C  17,C  16,C  15,C  14)   -179.9984         0.025498   
    221. D(C  25,C  16,C  15,C  14)      0.0032         0.025498   
    222. D(C  25,C  16,C  15,H  32)    179.9986         0.025498   
    223. D(H  33,C  17,C  16,C  25)    179.9974         0.024307   
    224. D(H  33,C  17,C  16,C  15)     -0.0009         0.024307   
    225. D(C  18,C  17,C  16,C  25)      0.0035         0.024307   
    226. D(C  18,C  17,C  16,C  15)   -179.9948         0.024307   
    227. D(H  34,C  18,C  17,H  33)      0.0068         0.026353   
    228. D(C  19,C  18,C  17,H  33)   -179.9977         0.026353   
    229. D(C  19,C  18,C  17,C  16)     -0.0037         0.026353   
    230. D(H  34,C  18,C  17,C  16)   -179.9992         0.026353   
    231. D(H  35,C  19,C  18,H  34)     -0.0014         0.026396   
    232. D(C  20,C  19,C  18,H  34)    179.9968         0.026396   
    233. D(C  20,C  19,C  18,C  17)      0.0013         0.026396   
    234. D(H  35,C  19,C  18,C  17)   -179.9969         0.026396   
    235. D(C  25,C  20,C  19,H  35)    179.9995         0.024325   
    236. D(C  25,C  20,C  19,C  18)      0.0013         0.024325   
    237. D(C  21,C  20,C  19,H  35)     -0.0008         0.024325   
    238. D(C  21,C  20,C  19,C  18)   -179.9989         0.024325   
    239. D(H  36,C  21,C  20,C  25)    179.9982         0.026363   
    240. D(H  36,C  21,C  20,C  19)     -0.0015         0.026363   
    241. D(C  22,C  21,C  20,C  25)     -0.0016         0.026363   
    242. D(C  22,C  21,C  20,C  19)    179.9987         0.026363   
    243. D(H  37,C  22,C  21,H  36)     -0.0007         0.025367   
    244. D(C  23,C  22,C  21,C  20)      0.0026         0.025367   
    245. D(H  37,C  22,C  21,C  20)    179.9991         0.025367   
    246. D(C  23,C  22,C  21,H  36)   -179.9972         0.025367   
    247. D(C  24,C  23,C  22,H  37)   -179.9974         0.022245   
    248. D(C  24,C  23,C  22,C  21)     -0.0009         0.022245   
    249. D(C   1,C  23,C  22,H  37)      0.0040         0.022245   
    250. D(C   1,C  23,C  22,C  21)   -179.9995         0.022245   
    251. D(C  24,C  23,C   1,C   2)      0.0052         0.016639   
    252. D(C  24,C  23,C   1,O   0)   -179.9918         0.016639   
    253. D(C  22,C  23,C   1,O   0)      0.0067         0.016639   
    254. D(C  22,C  23,C   1,C   2)   -179.9964         0.016639   
    255. D(C  25,C  24,C  23,C  22)     -0.0017         0.021665   
    256. D(C  25,C  24,C  23,C   1)    179.9969         0.021665   
    257. D(C  13,C  24,C  23,C  22)   -179.9998         0.021665   
    258. D(C  13,C  24,C  23,C   1)     -0.0013         0.021665   
    259. D(C  25,C  24,C  13,C  14)      0.0004         0.025023   
    260. D(C  25,C  24,C  13,C  12)    179.9981         0.025023   
    261. D(C  23,C  24,C  13,C  14)    179.9985         0.025023   
    262. D(C  23,C  24,C  13,C  12)     -0.0037         0.025023   
    263. D(C  20,C  25,C  24,C  23)      0.0026         0.020443   
    264. D(C  20,C  25,C  24,C  13)   -179.9992         0.020443   
    265. D(C  16,C  25,C  24,C  23)   -179.9971         0.020443   
    266. D(C  16,C  25,C  24,C  13)      0.0011         0.020443   
    267. D(C  24,C  25,C  20,C  21)     -0.0009         0.022926   
    268. D(C  24,C  25,C  20,C  19)    179.9988         0.022926   
    269. D(C  16,C  25,C  20,C  21)    179.9988         0.022926   
    270. D(C  16,C  25,C  20,C  19)     -0.0015         0.022926   
    271. D(C  24,C  25,C  16,C  17)    179.9988         0.022079   
    272. D(C  24,C  25,C  16,C  15)     -0.0029         0.022079   
    273. D(C  20,C  25,C  16,C  17)     -0.0009         0.022079   
    274. D(C  20,C  25,C  16,C  15)    179.9975         0.022079   
    275. D(H  43,H  27,C   7,C   8)    -11.8380         0.113166   
    276. D(H  43,H  27,C   7,C   6)    168.1653         0.113166   
    277. D(H  42,H  28,C   8,C   9)   -125.4862         0.156741   
    278. D(H  42,H  28,C   8,C   7)     54.5110         0.156741   
    279. D(H  41,H  28,C   8,H  43)     41.0681         0.156741   
    280. D(H  41,H  28,C   8,C   9)   -112.5222         0.156741   
    281. D(H  41,H  28,C   8,C   7)     67.4750         0.156741   
    282. D(C  38,H  28,C   8,H  43)     19.1705         0.156741   
    283. D(C  38,H  28,C   8,C   9)   -134.4199         0.156741   
    284. D(H  42,H  28,C   8,H  43)     28.1042         0.156741   
    285. D(C  38,H  28,C   8,C   7)     45.5774         0.156741   
    286. D(H  43,H  28,C   8,C   9)   -153.5904         0.156741   
    287. D(H  43,H  28,C   8,C   7)     26.4068         0.156741   
    288. D(H  43,C  38,H  28,H  42)   -108.7556         0.001500   
    289. D(H  43,C  38,H  28,H  41)    143.8843         0.001500   
    290. D(H  43,C  38,H  28,C   8)    -78.9640         0.001500   
    291. D(H  42,C  38,H  28,H  43)    108.7556         0.001500   
    292. D(H  42,C  38,H  28,H  41)   -107.3600         0.001500   
    293. D(H  42,C  38,H  28,C   8)     29.7916         0.001500   
    294. D(H  41,C  38,H  28,H  43)   -143.8843         0.001500   
    295. D(H  41,C  38,H  28,H  42)    107.3600         0.001500   
    296. D(H  41,C  38,H  28,C   8)    137.1516         0.001500   
    297. D(C  39,C  38,H  28,H  43)    -55.9685         0.001500   
    298. D(C  39,C  38,H  28,H  42)   -164.7241         0.001500   
    299. D(C  39,C  38,H  28,H  41)     87.9158         0.001500   
    300. D(C  39,C  38,H  28,C   8)   -134.9325         0.001500   
    301. D(H  28,H  41,C  38,H  43)    -28.9013         0.127786   
    302. D(H  28,H  41,C  38,H  42)     87.8819         0.127786   
    303. D(H  28,H  41,C  38,C  39)   -150.5097         0.127786   
    304. D(C  38,H  41,H  28,H  43)     17.2267         0.001500   
    305. D(C  38,H  41,H  28,H  42)    -36.6884         0.001500   
    306. D(C  38,H  41,H  28,C   8)    -63.3871         0.001500   
    307. D(H  28,H  42,C  38,H  43)     50.9345         0.127786   
    308. D(H  28,H  42,C  38,H  41)    -65.8487         0.127786   
    309. D(H  28,H  42,C  38,C  39)    172.5429         0.127786   
    310. D(C  38,H  42,H  28,H  43)    -33.6879         0.001500   
    311. D(C  38,H  42,H  28,H  41)     36.7299         0.001500   
    312. D(C  38,H  42,H  28,C   8)   -158.1218         0.001500   
    313. D(H  28,H  43,C  38,H  42)    -82.4855         0.147236   
    314. D(H  28,H  43,C  38,H  41)     34.2977         0.147236   
    315. D(H  28,H  43,C  38,C  39)    155.9061         0.147236   
    316. D(H  27,H  43,C  38,H  28)     20.3737         0.147236   
    317. D(H  27,H  43,C  38,H  42)    -62.1118         0.147236   
    318. D(H  27,H  43,C  38,H  41)     54.6714         0.147236   
    319. D(C   8,H  43,C  38,H  28)      4.3407         0.147236   
    320. D(C   8,H  43,C  38,H  42)    -78.1448         0.147236   
    321. D(C   8,H  43,C  38,H  41)     38.6384         0.147236   
    322. D(H  27,H  43,H  28,H  42)   -102.9815         0.001500   
    323. D(H  27,H  43,H  28,H  41)   -160.5486         0.001500   
    324. D(H  27,H  43,H  28,C  38)   -141.2282         0.001500   
    325. D(H  27,H  43,H  28,C   8)    -22.8028         0.001500   
    326. D(C  38,H  43,H  28,H  42)     38.2467         0.001500   
    327. D(C  38,H  43,H  28,H  41)    -19.3203         0.001500   
    328. D(C   8,H  43,C  38,C  39)    160.2468         0.147236   
    329. D(C  38,H  43,H  28,C   8)    118.4254         0.001500   
    330. D(H  28,H  43,H  27,C   7)     11.6046         0.001500   
    331. D(C   8,H  43,H  27,C   7)      6.5741         0.001500   
    332. D(H  27,H  43,C  38,C  39)    176.2798         0.147236   
    333. D(C  38,H  43,H  27,C   7)    -39.9848         0.001500   
    334. D(H  27,H  43,C   8,H  28)    152.4883         0.001500   
    335. D(H  27,H  43,C   8,C   9)   -171.4949         0.001500   
    336. D(H  27,H  43,C   8,C   7)     -4.4697         0.001500   
    337. D(C  38,H  43,C   8,H  28)    -63.8200         0.001500   
    338. D(C  38,H  43,C   8,C   9)    -27.8032         0.001500   
    339. D(C  38,H  43,C   8,C   7)    139.2221         0.001500   
    -----------------------------------------------------------------

Number of atoms                         .... 44
Number of degrees of freedom            .... 339

Time needed for optimization step       :     2.51 sec

         *************************************************************
         *                GEOMETRY OPTIMIZATION CYCLE   1            *
         *************************************************************
---------------------------------
CARTESIAN COORDINATES (ANGSTROEM)
---------------------------------
  O     0.728670    0.858955   -2.365735
  C     0.157515    0.470896   -1.282184
  C     0.885928   -0.004226   -0.131449
  C     2.403773   -0.089624   -0.095893
  N     3.249834    0.237849   -1.057457
  C     4.563620    0.040190   -0.702720
  C     5.686956    0.297452   -1.514417
  C     6.973150    0.049393   -1.024587
  C     7.149483   -0.450845    0.261795
  C     6.048901   -0.713503    1.084917
  C     4.762499   -0.458781    0.577910
  S     3.236626   -0.672718    1.326545
  C     0.158373   -0.410109    1.018354
  C    -1.236797   -0.375601    1.100647
  C    -1.901340   -0.790485    2.266315
  C    -3.292802   -0.757125    2.351013
  C    -4.054916   -0.306971    1.269508
  C    -5.456380   -0.266899    1.338004
  C    -6.207432    0.183450    0.254317
  C    -5.565124    0.598831   -0.909977
  C    -4.164980    0.568625   -1.003934
  C    -3.509750    0.981122   -2.162229
  C    -2.113941    0.942814   -2.234414
  C    -1.291847    0.497215   -1.172112
  C    -1.972852    0.080392    0.000566
  C    -3.396047    0.113956    0.088671
  H     5.527696    0.687525   -2.514892
  H     7.833068    0.250687   -1.657350
  H     8.153395   -0.640336    0.633219
  H     6.182720   -1.103463    2.088274
  H     0.685534   -0.770814    1.894917
  H    -1.331790   -1.144955    3.121842
  H    -3.772055   -1.085815    3.268802
  H    -5.971488   -0.587788    2.239667
  H    -7.291175    0.211181    0.315825
  H    -6.160694    0.948438   -1.749557
  H    -4.061650    1.337997   -3.026287
  H    -1.634680    1.273089   -3.156273
  C    14.246477    0.597707    1.712093
  C    15.660830    0.228763    1.738251
  N    16.783329   -0.064049    1.759012
  H    13.713549    0.155019    2.558815
  H    14.127033    1.683886    1.765682
  H    13.770636    0.248519    0.790917

----------------------------
CARTESIAN COORDINATES (A.U.)
----------------------------
  NO LB    ZA    FRAG    MASS        X           Y           Z
   0 O   8.0000    0    15.999    1.376986    1.623190   -4.470591
   1 C   6.0000    0    12.011    0.297660    0.889865   -2.422976
   2 C   6.0000    0    12.011    1.674161   -0.007985   -0.248403
   3 C   6.0000    0    12.011    4.542473   -0.169364   -0.181212
   4 N   7.0000    0    14.007    6.141297    0.449470   -1.998304
   5 C   6.0000    0    12.011    8.623992    0.075948   -1.327949
   6 C   6.0000    0    12.011   10.746789    0.562102   -2.861834
   7 C   6.0000    0    12.011   13.177344    0.093339   -1.936189
   8 C   6.0000    0    12.011   13.510565   -0.851973    0.494721
   9 C   6.0000    0    12.011   11.430767   -1.348326    2.050195
  10 C   6.0000    0    12.011    8.999820   -0.866970    1.092092
  11 S  16.0000    0    32.060    6.116338   -1.271252    2.506807
  12 C   6.0000    0    12.011    0.299282   -0.774993    1.924409
  13 C   6.0000    0    12.011   -2.337208   -0.709783    2.079921
  14 C   6.0000    0    12.011   -3.593011   -1.493800    4.282715
  15 C   6.0000    0    12.011   -6.222495   -1.430760    4.442771
  16 C   6.0000    0    12.011   -7.662681   -0.580092    2.399023
  17 C   6.0000    0    12.011  -10.311064   -0.504367    2.528461
  18 C   6.0000    0    12.011  -11.730347    0.346670    0.480590
  19 C   6.0000    0    12.011  -10.516560    1.131627   -1.719607
  20 C   6.0000    0    12.011   -7.870672    1.074545   -1.897160
  21 C   6.0000    0    12.011   -6.632466    1.854051   -4.086020
  22 C   6.0000    0    12.011   -3.994770    1.781660   -4.222431
  23 C   6.0000    0    12.011   -2.441238    0.939600   -2.214971
  24 C   6.0000    0    12.011   -3.728151    0.151919    0.001070
  25 C   6.0000    0    12.011   -6.417599    0.215346    0.167565
  26 H   1.0000    0     1.008   10.445831    1.299234   -4.752457
  27 H   1.0000    0     1.008   14.802354    0.473730   -3.131939
  28 H   1.0000    0     1.008   15.407684   -1.210059    1.196611
  29 H   1.0000    0     1.008   11.683648   -2.085244    3.946265
  30 H   1.0000    0     1.008    1.295471   -1.456628    3.580875
  31 H   1.0000    0     1.008   -2.516719   -2.163650    5.899427
  32 H   1.0000    0     1.008   -7.128150   -2.051893    6.177140
  33 H   1.0000    0     1.008  -11.284477   -1.110759    4.232357
  34 H   1.0000    0     1.008  -13.778324    0.399075    0.596823
  35 H   1.0000    0     1.008  -11.642025    1.792288   -3.306183
  36 H   1.0000    0     1.008   -7.675406    2.528448   -5.718853
  37 H   1.0000    0     1.008   -3.089098    2.405790   -5.964491
  38 C   6.0000    0    12.011   26.921940    1.129503    3.235388
  39 C   6.0000    0    12.011   29.594679    0.432300    3.284819
  40 N   7.0000    0    14.007   31.715896   -0.121035    3.324051
  41 H   1.0000    0     1.008   25.914851    0.292943    4.835460
  42 H   1.0000    0     1.008   26.696224    3.182083    3.336655
  43 H   1.0000    0     1.008   26.022730    0.469632    1.494617

      -----------------------------------------------------------      
     |                   =====================                   |     
     |                           x T B                           |     
     |                   =====================                   |     
     |                         S. Grimme                         |     
     |          Mulliken Center for Theoretical Chemistry        |     
     |                    University of Bonn                     |     
      -----------------------------------------------------------      

   * xtb version 6.6.1 (8d0f1dd) compiled by 'stahn@M-Bot' on 2023-08-01

   xtb is free software: you can redistribute it and/or modify it under
   the terms of the GNU Lesser General Public License as published by
   the Free Software Foundation, either version 3 of the License, or
   (at your option) any later version.
   
   xtb is distributed in the hope that it will be useful,
   but WITHOUT ANY WARRANTY; without even the implied warranty of
   MERCHANTABILITY or FITNESS FOR A PARTICULAR PURPOSE.  See the
   GNU Lesser General Public License for more details.
   
   Cite this work as:
   * C. Bannwarth, E. Caldeweyher, S. Ehlert, A. Hansen, P. Pracht,
     J. Seibert, S. Spicher, S. Grimme, WIREs Comput. Mol. Sci., 2020, 11,
     e01493. DOI: 10.1002/wcms.1493
   
   for GFN2-xTB:
   * C. Bannwarth, S. Ehlert and S. Grimme., J. Chem. Theory Comput., 2019,
     15, 1652-1671. DOI: 10.1021/acs.jctc.8b01176
   for GFN1-xTB:
   * S. Grimme, C. Bannwarth, P. Shushkov, J. Chem. Theory Comput., 2017,
     13, 1989-2009. DOI: 10.1021/acs.jctc.7b00118
   for GFN0-xTB:
   * P. Pracht, E. Caldeweyher, S. Ehlert, S. Grimme, ChemRxiv, 2019, preprint.
     DOI: 10.26434/chemrxiv.8326202.v1
   for GFN-FF:
   * S. Spicher and S. Grimme, Angew. Chem. Int. Ed., 2020, 59, 15665-15673.
     DOI: 10.1002/anie.202004239
   
   for ALPB and GBSA implicit solvation:
   * S. Ehlert, M. Stahn, S. Spicher, S. Grimme, J. Chem. Theory Comput.,
     2021, 17, 4250-4261. DOI: 10.1021/acs.jctc.1c00471
   
   for DFT-D4:
   * E. Caldeweyher, C. Bannwarth and S. Grimme, J. Chem. Phys., 2017,
     147, 034112. DOI: 10.1063/1.4993215
   * E. Caldeweyher, S. Ehlert, A. Hansen, H. Neugebauer, S. Spicher,
     C. Bannwarth and S. Grimme, J. Chem. Phys., 2019, 150, 154122.
     DOI: 10.1063/1.5090222
   * E. Caldeweyher, J.-M. Mewes, S. Ehlert and S. Grimme, Phys. Chem. Chem. Phys.
     2020, 22, 8499-8512. DOI: 10.1039/D0CP00502A
   
   for sTDA-xTB:
   * S. Grimme and C. Bannwarth, J. Chem. Phys., 2016, 145, 054103.
     DOI: 10.1063/1.4959605
   
   in the mass-spec context:
   * V. Asgeirsson, C. Bauer and S. Grimme, Chem. Sci., 2017, 8, 4879.
     DOI: 10.1039/c7sc00601b
   * J. Koopman and S. Grimme, ACS Omega 2019, 4, 12, 15120-15133.
     DOI: 10.1021/acsomega.9b02011
   
   for metadynamics refer to:
   * S. Grimme, J. Chem. Theory Comput., 2019, 155, 2847-2862
     DOI: 10.1021/acs.jctc.9b00143
   
   for SPH calculations refer to:
   * S. Spicher and S. Grimme, J. Chem. Theory Comput., 2021, 17, 1701-1714
     DOI: 10.1021/acs.jctc.0c01306
   
   with help from (in alphabetical order)
   P. Atkinson, C. Bannwarth, F. Bohle, G. Brandenburg, E. Caldeweyher
   M. Checinski, S. Dohm, S. Ehlert, S. Ehrlich, I. Gerasimov, C. Hölzer
   A. Katbashev, J. Koopman, C. Lavigne, S. Lehtola, F. März, M. Müller,
   F. Musil, H. Neugebauer, J. Pisarek, C. Plett, P. Pracht, F. Pultar,
   J. Seibert, P. Shushkov, S. Spicher, M. Stahn, M. Steiner, T. Strunk,
   J. Stückrath, T. Rose, and J. Unsleber
   
 * started run on 2025/01/14 at 21:17:31.296     

           -------------------------------------------------
          |                Calculation Setup                |
           -------------------------------------------------

          program call               : /home/jang/cal_tmp/10_orca/orca_5_0_4_linux_x86-64_shared_openmpi411/otool_xtb /home/jang/cal_tmp/10_orca/Gen_chromophore/Gen_molecular_pairs_cal/mol_4_1.xyz/input_XTB.xyz --grad -c 0 -u 0 -P 4 --namespace /home/jang/cal_tmp/10_orca/Gen_chromophore/Gen_molecular_pairs_cal/mol_4_1.xyz/input --input /home/jang/cal_tmp/10_orca/Gen_chromophore/Gen_molecular_pairs_cal/mol_4_1.xyz/input_XTB.input.tmp --acc 1.000000
          hostname                   : node02
          calculation namespace      : /home/jang/cal_tmp/10_orca/Gen_chromophore/Gen_molecular_pairs_cal/mol_4_1.xyz/input
          coordinate file            : /home/jang/cal_tmp/10_orca/Gen_chromophore/Gen_molecular_pairs_cal/mol_4_1.xyz/input_XTB.xyz
          omp threads                :                     4

   ID    Z sym.   atoms
    1    8 O      1
    2    6 C      2-4, 6-11, 13-26, 39, 40
    3    7 N      5, 41
    4   16 S      12
    5    1 H      27-38, 42-44

molecular fragmentation (1/2 indicates fragments):
11111111111111111111111111111111111111222222
# atoms in fragment 1/2:    38     6
 fragment masses (1/2) :      350.41       41.05
CMA distance (Bohr)    :  28.978
constraining FC (au)   :  0.0500

           -------------------------------------------------
          |                 G F N 2 - x T B                 |
           -------------------------------------------------

        Reference                      10.1021/acs.jctc.8b01176
      * Hamiltonian:
        H0-scaling (s, p, d)           1.850000    2.230000    2.230000
        zeta-weighting                 0.500000
      * Dispersion:
        s8                             2.700000
        a1                             0.520000
        a2                             5.000000
        s9                             5.000000
      * Repulsion:
        kExp                           1.500000    1.000000
        rExp                           1.000000
      * Coulomb:
        alpha                          2.000000
        third order                    shell-resolved
        anisotropic                    true
        a3                             3.000000
        a5                             4.000000
        cn-shift                       1.200000
        cn-exp                         4.000000
        max-rad                        5.000000


          ...................................................
          :                      SETUP                      :
          :.................................................:
          :  # basis functions                 137          :
          :  # atomic orbitals                 136          :
          :  # shells                           74          :
          :  # electrons                       137          :
          :  max. iterations                   250          :
          :  Hamiltonian                  GFN2-xTB          :
          :  restarted?                      false          :
          :  GBSA solvation                  false          :
          :  PC potential                    false          :
          :  electronic temp.          300.0000000     K    :
          :  accuracy                    1.0000000          :
          :  -> integral cutoff          0.2500000E+02      :
          :  -> integral neglect         0.1000000E-07      :
          :  -> SCF convergence          0.1000000E-05 Eh   :
          :  -> wf. convergence          0.1000000E-03 e    :
          :  Broyden damping             0.4000000          :
          ...................................................

 iter      E             dE          RMSdq      gap      omega  full diag
   1    -75.4259347 -0.754259E+02  0.525E+00    1.88       0.0  T
   2    -75.4429673 -0.170325E-01  0.295E+00    1.58       1.0  T
   3    -75.2723405  0.170627E+00  0.237E+00    1.51       1.0  T
   4    -75.4997256 -0.227385E+00  0.644E-01    1.72       1.0  T
   5    -75.5120013 -0.122757E-01  0.223E-01    1.70       1.0  T
   6    -75.5122969 -0.295636E-03  0.139E-01    1.70       1.0  T
   7    -75.5125782 -0.281210E-03  0.866E-02    1.69       1.0  T
   8    -75.5128254 -0.247252E-03  0.252E-02    1.71       1.0  T
   9    -75.5128312 -0.576846E-05  0.131E-02    1.70       1.2  T
  10    -75.5128367 -0.555756E-05  0.437E-03    1.70       3.4  T
  11    -75.5128370 -0.261516E-06  0.230E-03    1.70       6.6  T
  12    -75.5128371 -0.911290E-07  0.112E-03    1.70      13.4  T
  13    -75.5128371 -0.214123E-07  0.548E-04    1.70      27.5  T
  14    -75.5128371 -0.456592E-08  0.211E-04    1.70      71.5  T

   *** convergence criteria satisfied after 14 iterations ***

         #    Occupation            Energy/Eh            Energy/eV
      -------------------------------------------------------------
         1        2.0000           -0.7360302             -20.0284
       ...           ...                  ...                  ...
        63        2.0000           -0.4219659             -11.4823
        64        2.0000           -0.4184977             -11.3879
        65        2.0000           -0.3928451             -10.6899
        66        2.0000           -0.3896009             -10.6016
        67        2.0000           -0.3878163             -10.5530
        68        1.9998           -0.3767150             -10.2509
        69        1.0002           -0.3605297              -9.8105 (HOMO)
        70                         -0.2978914              -8.1060 (LUMO)
        71                         -0.2760630              -7.5121
        72                         -0.2512349              -6.8364
        73                         -0.2483524              -6.7580
        74                         -0.2372729              -6.4565
       ...                                ...                  ...
       136                          1.0423472              28.3637
      -------------------------------------------------------------
                  HL-Gap            0.0626382 Eh            1.7045 eV
             Fermi-level           -0.3489164 Eh           -9.4945 eV

 SCC (total)                   0 d,  0 h,  0 min,  0.119 sec
 SCC setup                      ...        0 min,  0.001 sec (  0.441%)
 Dispersion                     ...        0 min,  0.001 sec (  1.075%)
 classical contributions        ...        0 min,  0.000 sec (  0.081%)
 integral evaluation            ...        0 min,  0.022 sec ( 18.337%)
 iterations                     ...        0 min,  0.079 sec ( 66.369%)
 molecular gradient             ...        0 min,  0.016 sec ( 13.057%)
 printout                       ...        0 min,  0.001 sec (  0.558%)

         :::::::::::::::::::::::::::::::::::::::::::::::::::::
         ::                     SUMMARY                     ::
         :::::::::::::::::::::::::::::::::::::::::::::::::::::
         :: total energy             -74.278313051816 Eh    ::
         :: gradient norm              0.162897186693 Eh/a0 ::
         :: HOMO-LUMO gap              1.704472294713 eV    ::
         ::.................................................::
         :: SCC energy               -75.512837115171 Eh    ::
         :: -> isotropic ES            0.050723493829 Eh    ::
         :: -> anisotropic ES          0.006184541327 Eh    ::
         :: -> anisotropic XC          0.054631248855 Eh    ::
         :: -> dispersion             -0.053594967045 Eh    ::
         :: repulsion energy           1.235122210784 Eh    ::
         :: add. restraining           0.000000000000 Eh    ::
         :: total charge               0.000000000000 e     ::
         :::::::::::::::::::::::::::::::::::::::::::::::::::::


Property printout bound to 'properties.out'

           -------------------------------------------------
          | TOTAL ENERGY              -74.278313051816 Eh   |
          | GRADIENT NORM               0.162897186693 Eh/α |
          | HOMO-LUMO GAP               1.704472294713 eV   |
           -------------------------------------------------

------------------------------------------------------------------------
 * finished run on 2025/01/14 at 21:17:32.426     
------------------------------------------------------------------------
 total:
 * wall-time:     0 d,  0 h,  0 min,  1.128 sec
 *  cpu-time:     0 d,  0 h,  0 min,  1.547 sec
 * ratio c/w:     1.372 speedup
 SCF:
 * wall-time:     0 d,  0 h,  0 min,  0.120 sec
 *  cpu-time:     0 d,  0 h,  0 min,  0.462 sec
 * ratio c/w:     3.857 speedup


-------------------------   --------------------
FINAL SINGLE POINT ENERGY       -74.278313051820
-------------------------   --------------------

------------------------------------------------------------------------------
                         ORCA GEOMETRY RELAXATION STEP
------------------------------------------------------------------------------

Reading the OPT-File                    .... done
Getting information on internals        .... done
Copying old internal coords+grads       .... done
Making the new internal coordinates     .... (new redundants).... done
Validating the new internal coordinates .... (new redundants).... done
Calculating the B-matrix                .... done
Calculating the G,G- and P matrices     .... done
Transforming gradient to internals      .... done
Projecting the internal gradient        .... done
Number of atoms                         ....  44
Number of internal coordinates          .... 339
Current Energy                          ....   -74.278313052 Eh
Current gradient norm                   ....     0.162897187 Eh/bohr
Maximum allowed component of the step   ....  0.300
Current trust radius                    ....  0.300
Evaluating the initial hessian          ....  (Almloef) done
Projecting the Hessian                  .... done
Forming the augmented Hessian           .... done
Diagonalizing the augmented Hessian     .... done
Last element of RFO vector              ....  0.972819548
Lowest eigenvalues of augmented Hessian:
 -0.031532904  0.000208303  0.008957415  0.010320680  0.015633338
Length of the computed step             ....  0.238034403
The final length of the internal step   ....  0.238034403
Converting the step to cartesian space:
 Initial RMS(Int)=    0.0129282542
Transforming coordinates:
 Iter   0:  RMS(Cart)=    0.1169997958 RMS(Int)=    1.6366201882
 Iter   1:  RMS(Cart)=    0.0016009377 RMS(Int)=    1.4478085749
 Iter   2:  RMS(Cart)=    0.0000398947 RMS(Int)=    0.3412556020
 Iter   3:  RMS(Cart)=    0.0000008366 RMS(Int)=    0.0000003000
 Iter   4:  RMS(Cart)=    0.0000000988 RMS(Int)=    0.0000000625
done
Storing new coordinates                 .... done

                                .--------------------.
          ----------------------|Geometry convergence|-------------------------
          Item                value                   Tolerance       Converged
          ---------------------------------------------------------------------
          RMS gradient        0.0075600585            0.0001000000      NO
          MAX gradient        0.0610907016            0.0003000000      NO
          RMS step            0.0129282542            0.0020000000      NO
          MAX step            0.1271362094            0.0040000000      NO
          ........................................................
          Max(Bonds)      0.0673      Max(Angles)    2.51
          Max(Dihed)        0.33      Max(Improp)    0.00
          ---------------------------------------------------------------------

The optimization has not yet converged - more geometry cycles are needed


    ---------------------------------------------------------------------------
                         Redundant Internal Coordinates
                            (Angstroem and degrees)

        Definition                    Value    dE/dq     Step     New-Value
    ----------------------------------------------------------------------------
     1. B(C   1,O   0)                1.2849  0.061091 -0.0378    1.2471   
     2. B(C   2,C   1)                1.4424 -0.005222  0.0043    1.4467   
     3. B(C   3,C   2)                1.5207  0.053161 -0.0673    1.4534   
     4. B(N   4,C   3)                1.3220  0.037132 -0.0274    1.2946   
     5. B(C   5,N   4)                1.3751  0.021962 -0.0190    1.3561   
     6. B(C   6,C   5)                1.4096  0.014746 -0.0123    1.3972   
     7. B(C   7,C   6)                1.3985  0.020866 -0.0177    1.3808   
     8. B(C   8,C   7)                1.3914 -0.004459  0.0028    1.3942   
     9. B(C   9,C   8)                1.3992  0.018147 -0.0155    1.3837   
    10. B(C  10,C   9)                1.4060  0.019260 -0.0161    1.3899   
    11. B(C  10,C   5)                1.3887 -0.018563  0.0167    1.4054   
    12. B(S  11,C  10)                1.7130 -0.005677  0.0069    1.7200   
    13. B(S  11,C   3)                1.7484 -0.011975  0.0121    1.7606   
    14. B(C  12,C   2)                1.4199  0.040297 -0.0366    1.3833   
    15. B(C  13,C  12)                1.3980 -0.008599  0.0072    1.4052   
    16. B(C  14,C  13)                1.4045 -0.004328  0.0035    1.4079   
    17. B(C  15,C  14)                1.3944  0.021683 -0.0182    1.3762   
    18. B(C  16,C  15)                1.3975 -0.017063  0.0139    1.4114   
    19. B(C  17,C  16)                1.4037  0.001257 -0.0012    1.4025   
    20. B(C  18,C  17)                1.3933  0.005736 -0.0052    1.3881   
    21. B(C  19,C  18)                1.3931  0.009539 -0.0081    1.3849   
    22. B(C  20,C  19)                1.4036 -0.002315  0.0021    1.4057   
    23. B(C  21,C  20)                1.3932 -0.015570  0.0129    1.4061   
    24. B(C  22,C  21)                1.3982  0.022239 -0.0188    1.3794   
    25. B(C  23,C  22)                1.4152  0.012030 -0.0112    1.4040   
    26. B(C  23,C   1)                1.4538 -0.000468  0.0004    1.4542   
    27. B(C  24,C  23)                1.4187  0.008631 -0.0073    1.4114   
    28. B(C  24,C  13)                1.4000 -0.016867  0.0150    1.4149   
    29. B(C  25,C  24)                1.4263  0.014504 -0.0124    1.4139   
    30. B(C  25,C  20)                1.4113 -0.002526  0.0033    1.4146   
    31. B(C  25,C  16)                1.4162  0.000596  0.0001    1.4163   
    32. B(H  26,C   6)                1.0856  0.005029 -0.0067    1.0789   
    33. B(H  27,C   7)                1.0864  0.004989 -0.0068    1.0796   
    34. B(H  28,C   8)                1.0871  0.003584 -0.0064    1.0807   
    35. B(H  29,C   9)                1.0848  0.004556 -0.0060    1.0787   
    36. B(H  30,C  12)                1.0846  0.001819 -0.0024    1.0822   
    37. B(H  31,C  14)                1.0872  0.004715 -0.0063    1.0809   
    38. B(H  32,C  15)                1.0863  0.004414 -0.0059    1.0804   
    39. B(H  33,C  17)                1.0869  0.004662 -0.0062    1.0806   
    40. B(H  34,C  18)                1.0858  0.004423 -0.0059    1.0799   
    41. B(H  35,C  19)                1.0871  0.004821 -0.0065    1.0807   
    42. B(H  36,C  21)                1.0856  0.004408 -0.0059    1.0797   
    43. B(H  37,C  22)                1.0902  0.005973 -0.0081    1.0821   
    44. B(C  38,H  28)                6.3105  0.001063 -0.0027    6.3078   
    45. B(C  39,C  38)                1.4619  0.020915 -0.0216    1.4403   
    46. B(N  40,C  39)                1.1602  0.044360 -0.0176    1.1426   
    47. B(H  41,H  28)                5.9377 -0.000918  0.0027    5.9404   
    48. B(H  41,C  38)                1.0940  0.002556 -0.0039    1.0901   
    49. B(H  42,H  28)                6.5091 -0.000079  0.0013    6.5105   
    50. B(H  42,C  38)                1.0940  0.002781 -0.0040    1.0900   
    51. B(H  43,H  28)                5.6893 -0.001505  0.0023    5.6916   
    52. B(H  43,H  27)                6.4225  0.000116 -0.0015    6.4210   
    53. B(H  43,C   8)                6.6790  0.001513 -0.0033    6.6757   
    54. B(H  43,C  38)                1.0940  0.002942 -0.0042    1.0899   
    55. A(O   0,C   1,C  23)          120.10  0.000484   -0.02    120.09   
    56. A(C   2,C   1,C  23)          116.68 -0.000936    0.03    116.71   
    57. A(O   0,C   1,C   2)          123.22  0.000451   -0.01    123.20   
    58. A(C   1,C   2,C  12)          118.78 -0.011126    1.30    120.07   
    59. A(C   1,C   2,C   3)          122.77  0.008966   -1.12    121.65   
    60. A(C   3,C   2,C  12)          118.45  0.002159   -0.18    118.27   
    61. A(C   2,C   3,S  11)          120.88  0.007538   -0.78    120.09   
    62. A(N   4,C   3,S  11)          111.68 -0.022436    2.51    114.20   
    63. A(C   2,C   3,N   4)          127.44  0.014898   -1.73    125.71   
    64. A(C   3,N   4,C   5)          112.84  0.002875   -0.67    112.17   
    65. A(N   4,C   5,C   6)          125.92  0.002011   -0.41    125.50   
    66. A(N   4,C   5,C  10)          115.24 -0.000045    0.06    115.30   
    67. A(C   6,C   5,C  10)          118.85 -0.001967    0.35    119.20   
    68. A(C   5,C   6,C   7)          119.93  0.005453   -0.71    119.22   
    69. A(C   7,C   6,H  26)          121.43 -0.002579    0.33    121.76   
    70. A(C   5,C   6,H  26)          118.64 -0.002874    0.38    119.02   
    71. A(C   6,C   7,H  27)          119.41  0.003598   -0.33    119.08   
    72. A(C   6,C   7,C   8)          120.27 -0.004789    0.53    120.81   
    73. A(C   8,C   7,H  27)          120.31  0.001191   -0.20    120.11   
    74. A(H  28,C   8,H  43)           22.43  0.000207   -0.02     22.41   
    75. A(C   7,C   8,H  28)          119.71  0.000505   -0.02    119.69   
    76. A(C   9,C   8,H  43)          138.83  0.002333   -0.34    138.49   
    77. A(C   7,C   8,H  43)           99.28  0.000302    0.00     99.28   
    78. A(C   7,C   8,C   9)          120.77 -0.002672    0.35    121.13   
    79. A(C   9,C   8,H  28)          119.52  0.002167   -0.33    119.18   
    80. A(C  10,C   9,H  29)          120.77 -0.000350    0.03    120.80   
    81. A(C   8,C   9,H  29)          120.97 -0.001770    0.25    121.22   
    82. A(C   8,C   9,C  10)          118.26  0.002119   -0.28    117.98   
    83. A(C   5,C  10,C   9)          121.92  0.001856   -0.25    121.67   
    84. A(C   9,C  10,S  11)          129.40 -0.000886   -0.16    129.25   
    85. A(C   5,C  10,S  11)          108.68 -0.000969    0.40    109.09   
    86. A(C   3,S  11,C  10)           91.55  0.020576   -2.31     89.25   
    87. A(C   2,C  12,H  30)          120.03  0.002310   -0.35    119.68   
    88. A(C   2,C  12,C  13)          123.50  0.003677   -0.54    122.97   
    89. A(C  13,C  12,H  30)          116.47 -0.005987    0.89    117.36   
    90. A(C  12,C  13,C  14)          120.91 -0.004470    0.45    121.36   
    91. A(C  14,C  13,C  24)          119.98  0.002650   -0.31    119.67   
    92. A(C  12,C  13,C  24)          119.11  0.001821   -0.14    118.97   
    93. A(C  15,C  14,H  31)          118.87 -0.002267    0.34    119.21   
    94. A(C  13,C  14,H  31)          120.10  0.001563   -0.23    119.87   
    95. A(C  13,C  14,C  15)          121.03  0.000703   -0.11    120.92   
    96. A(C  16,C  15,H  32)          120.71  0.003378   -0.46    120.25   
    97. A(C  14,C  15,H  32)          118.97 -0.000320    0.09    119.06   
    98. A(C  14,C  15,C  16)          120.32 -0.003058    0.37    120.69   
    99. A(C  15,C  16,C  17)          121.06 -0.005479    0.61    121.66   
   100. A(C  17,C  16,C  25)          119.78  0.005280   -0.60    119.18   
   101. A(C  15,C  16,C  25)          119.16  0.000199   -0.00    119.16   
   102. A(C  18,C  17,H  33)          119.03 -0.001378    0.24    119.27   
   103. A(C  16,C  17,H  33)          120.35  0.003359   -0.46    119.88   
   104. A(C  16,C  17,C  18)          120.63 -0.001981    0.22    120.85   
   105. A(C  17,C  18,C  19)          119.86 -0.003726    0.40    120.26   
   106. A(C  19,C  18,H  34)          119.99  0.001683   -0.17    119.82   
   107. A(C  17,C  18,H  34)          120.15  0.002044   -0.23    119.92   
   108. A(C  18,C  19,C  20)          120.63 -0.000243    0.04    120.67   
   109. A(C  20,C  19,H  35)          120.11  0.001973   -0.30    119.82   
   110. A(C  18,C  19,H  35)          119.26 -0.001730    0.26    119.52   
   111. A(C  19,C  20,C  21)          121.23 -0.007732    0.79    122.02   
   112. A(C  21,C  20,C  25)          118.87  0.002751   -0.21    118.66   
   113. A(C  19,C  20,C  25)          119.91  0.004981   -0.58    119.32   
   114. A(C  20,C  21,C  22)          120.28 -0.000835    0.17    120.46   
   115. A(C  22,C  21,H  36)          118.39 -0.001754    0.24    118.63   
   116. A(C  20,C  21,H  36)          121.33  0.002589   -0.41    120.92   
   117. A(C  23,C  22,H  37)          118.34  0.000040   -0.02    118.32   
   118. A(C  21,C  22,H  37)          118.31 -0.005691    0.83    119.14   
   119. A(C  21,C  22,C  23)          123.35  0.005651   -0.81    122.54   
   120. A(C  22,C  23,C  24)          115.73 -0.013633    1.65    117.38   
   121. A(C   1,C  23,C  24)          122.40  0.007826   -0.88    121.52   
   122. A(C   1,C  23,C  22)          121.87  0.005807   -0.77    121.10   
   123. A(C  23,C  24,C  25)          121.54  0.004201   -0.62    120.92   
   124. A(C  13,C  24,C  25)          118.93 -0.002939    0.40    119.33   
   125. A(C  13,C  24,C  23)          119.53 -0.001263    0.22    119.75   
   126. A(C  16,C  25,C  24)          120.58  0.002445   -0.35    120.23   
   127. A(C  16,C  25,C  20)          119.20 -0.004310    0.53    119.72   
   128. A(C  20,C  25,C  24)          120.23  0.001865   -0.18    120.04   
   129. A(C   7,H  27,H  43)          120.64 -0.001576    0.24    120.88   
   130. A(H  42,H  28,H  43)           14.82  0.000310   -0.04     14.79   
   131. A(H  41,H  28,H  43)           17.36  0.000336   -0.04     17.31   
   132. A(C  38,H  28,H  43)            8.62  0.000164   -0.02      8.60   
   133. A(C   8,H  28,H  43)          153.39 -0.000381    0.05    153.44   
   134. A(H  41,H  28,H  42)           15.50  0.000326   -0.05     15.45   
   135. A(C  38,H  28,H  42)            9.63  0.000245   -0.04      9.59   
   136. A(C  38,H  28,H  41)            9.64  0.000173   -0.02      9.62   
   137. A(C   8,H  28,H  41)          162.22 -0.000204    0.02    162.25   
   138. A(C   8,H  28,C  38)          156.34 -0.000288    0.03    156.36   
   139. A(C   8,H  28,H  42)          147.64 -0.000512    0.07    147.71   
   140. A(H  28,C  38,H  43)           51.21 -0.000603    0.17     51.38   
   141. A(H  28,C  38,H  42)           95.61 -0.000931    0.28     95.89   
   142. A(H  28,C  38,H  41)           65.33 -0.000653    0.24     65.57   
   143. A(H  28,C  38,C  39)          152.58  0.000077   -0.04    152.55   
   144. A(H  42,C  38,H  43)          108.10 -0.000848    0.28    108.38   
   145. A(H  41,C  38,H  43)          108.10 -0.000925    0.28    108.38   
   146. A(C  39,C  38,H  43)          110.81  0.000673   -0.22    110.59   
   147. A(H  41,C  38,H  42)          108.10 -0.000489    0.17    108.27   
   148. A(C  39,C  38,H  42)          110.81  0.000847   -0.24    110.57   
   149. A(C  39,C  38,H  41)          110.81  0.000638   -0.24    110.57   
   150. L(C  38,C  39,N  40,H  43, 2) 180.00 -0.000009    0.00    180.00   
   151. L(C  38,C  39,N  40,H  43, 1) 180.00 -0.000022    0.00    180.00   
   152. A(H  28,H  41,C  38)          105.03  0.000480   -0.22    104.82   
   153. A(H  28,H  42,C  38)           74.76  0.000686   -0.23     74.53   
   154. A(H  27,H  43,H  28)           22.59  0.000247   -0.07     22.52   
   155. A(H  28,H  43,C  38)          120.17  0.000439   -0.16    120.02   
   156. A(C   8,H  43,H  27)           18.80  0.000088   -0.04     18.76   
   157. A(H  27,H  43,C  38)          136.30  0.000615   -0.22    136.08   
   158. A(C   8,H  43,C  38)          122.09  0.000533   -0.18    121.92   
   159. D(C  12,C   2,C   1,O   0)    179.99  0.000006   -0.01    179.99   
   160. D(C   3,C   2,C   1,C  23)    180.00  0.000005   -0.01    179.99   
   161. D(C   3,C   2,C   1,O   0)     -0.01  0.000009   -0.01     -0.02   
   162. D(C  12,C   2,C   1,C  23)     -0.00  0.000003   -0.00     -0.01   
   163. D(N   4,C   3,C   2,C  12)    179.96  0.000011   -0.02    179.95   
   164. D(N   4,C   3,C   2,C   1)     -0.04  0.000008   -0.01     -0.05   
   165. D(S  11,C   3,C   2,C  12)     -0.04  0.000012   -0.01     -0.05   
   166. D(S  11,C   3,C   2,C   1)    179.96  0.000009   -0.01    179.95   
   167. D(C   5,N   4,C   3,C   2)    180.00 -0.000012    0.01    180.00   
   168. D(C   5,N   4,C   3,S  11)     -0.00 -0.000012    0.01      0.00   
   169. D(C   6,C   5,N   4,C   3)   -179.99 -0.000017   -0.01   -180.00   
   170. D(C  10,C   5,N   4,C   3)      0.01  0.000027   -0.01     -0.01   
   171. D(C   7,C   6,C   5,N   4)   -180.00  0.000045   -0.01   -180.01   
   172. D(H  26,C   6,C   5,C  10)   -180.00 -0.000097    0.00   -180.00   
   173. D(C   7,C   6,C   5,C  10)      0.00 -0.000001   -0.01     -0.01   
   174. D(H  26,C   6,C   5,N   4)      0.00 -0.000051   -0.00      0.00   
   175. D(C   8,C   7,C   6,C   5)      0.00 -0.000092    0.01      0.02   
   176. D(H  27,C   7,C   6,H  26)     -0.00 -0.000168    0.01      0.01   
   177. D(C   8,C   7,C   6,H  26)   -180.00  0.000007    0.00   -180.00   
   178. D(H  27,C   7,C   6,C   5)    180.00 -0.000267    0.02    180.02   
   179. D(H  43,C   8,C   7,H  27)      9.90  0.000113   -0.01      9.89   
   180. D(H  43,C   8,C   7,C   6)   -170.10 -0.000063    0.00   -170.10   
   181. D(H  28,C   8,C   7,H  27)      0.00  0.000028   -0.00     -0.00   
   182. D(H  28,C   8,C   7,C   6)    180.00 -0.000148    0.01    180.01   
   183. D(C   9,C   8,C   7,H  27)    180.00  0.000319   -0.02    179.98   
   184. D(C   9,C   8,C   7,C   6)     -0.01  0.000142   -0.00     -0.01   
   185. D(H  29,C   9,C   8,H  28)     -0.00  0.000284   -0.04     -0.04   
   186. D(C  10,C   9,C   8,C   7)      0.00 -0.000095   -0.00     -0.00   
   187. D(H  29,C   9,C   8,C   7)   -180.00 -0.000005   -0.02   -180.02   
   188. D(C  10,C   9,C   8,H  28)    180.00  0.000195   -0.02    179.98   
   189. D(C  10,C   9,C   8,H  43)    165.06 -0.000480    0.09    165.15   
   190. D(H  29,C   9,C   8,H  43)    -14.94 -0.000391    0.07    -14.87   
   191. D(S  11,C  10,C   9,H  29)      0.00 -0.000047    0.01      0.02   
   192. D(C   5,C  10,C   9,H  29)   -180.00 -0.000088    0.02   -179.97   
   193. D(C   5,C  10,C   9,C   8)      0.00  0.000001    0.01      0.01   
   194. D(C   9,C  10,C   5,C   6)     -0.01  0.000047    0.00     -0.01   
   195. D(S  11,C  10,C   5,N   4)     -0.01 -0.000028    0.01      0.01   
   196. D(S  11,C  10,C   9,C   8)   -180.00  0.000042   -0.01   -180.00   
   197. D(S  11,C  10,C   5,C   6)    179.99  0.000013    0.01    180.00   
   198. D(C   9,C  10,C   5,N   4)    179.99  0.000006    0.00    180.00   
   199. D(C   3,S  11,C  10,C   5)      0.00  0.000017   -0.01     -0.01   
   200. D(C  10,S  11,C   3,C   2)    180.00 -0.000003    0.00    180.00   
   201. D(C  10,S  11,C   3,N   4)      0.00 -0.000003    0.00      0.00   
   202. D(C   3,S  11,C  10,C   9)   -180.00 -0.000020    0.00   -179.99   
   203. D(H  30,C  12,C   2,C   3)     -0.01 -0.000003    0.00     -0.00   
   204. D(H  30,C  12,C   2,C   1)    179.99 -0.000000    0.00    179.99   
   205. D(C  13,C  12,C   2,C   3)    180.00 -0.000005    0.01    180.00   
   206. D(C  13,C  12,C   2,C   1)     -0.00 -0.000003    0.00      0.00   
   207. D(C  24,C  13,C  12,H  30)   -179.99 -0.000001    0.00   -179.99   
   208. D(C  24,C  13,C  12,C   2)      0.00  0.000002   -0.00      0.00   
   209. D(C  14,C  13,C  12,H  30)      0.01  0.000000   -0.00      0.01   
   210. D(C  14,C  13,C  12,C   2)   -180.00  0.000003   -0.00   -180.00   
   211. D(H  31,C  14,C  13,C  24)   -180.00  0.000002   -0.00   -180.00   
   212. D(H  31,C  14,C  13,C  12)      0.00  0.000001   -0.00      0.00   
   213. D(C  15,C  14,C  13,C  24)      0.00  0.000000   -0.00     -0.00   
   214. D(C  15,C  14,C  13,C  12)   -180.00 -0.000001    0.00   -180.00   
   215. D(H  32,C  15,C  14,H  31)      0.00  0.000000   -0.00      0.00   
   216. D(H  32,C  15,C  14,C  13)   -180.00  0.000002   -0.00   -180.00   
   217. D(C  16,C  15,C  14,H  31)    180.00 -0.000002    0.00    180.00   
   218. D(C  16,C  15,C  14,C  13)     -0.00 -0.000001    0.00     -0.00   
   219. D(C  17,C  16,C  15,H  32)     -0.00 -0.000001    0.00     -0.00   
   220. D(C  17,C  16,C  15,C  14)   -180.00  0.000001   -0.00   -180.00   
   221. D(C  25,C  16,C  15,C  14)      0.00  0.000001   -0.00      0.00   
   222. D(C  25,C  16,C  15,H  32)    180.00 -0.000001    0.00    180.00   
   223. D(H  33,C  17,C  16,C  25)    180.00 -0.000000    0.00    180.00   
   224. D(H  33,C  17,C  16,C  15)     -0.00 -0.000000    0.00     -0.00   
   225. D(C  18,C  17,C  16,C  25)      0.00  0.000001   -0.00      0.00   
   226. D(C  18,C  17,C  16,C  15)   -179.99  0.000002   -0.00   -180.00   
   227. D(H  34,C  18,C  17,H  33)      0.01  0.000002   -0.00      0.00   
   228. D(C  19,C  18,C  17,H  33)   -180.00  0.000000   -0.00   -180.00   
   229. D(C  19,C  18,C  17,C  16)     -0.00 -0.000001    0.00     -0.00   
   230. D(H  34,C  18,C  17,C  16)   -180.00  0.000001   -0.00   -180.00   
   231. D(H  35,C  19,C  18,H  34)     -0.00 -0.000000    0.00     -0.00   
   232. D(C  20,C  19,C  18,H  34)    180.00 -0.000001    0.00    180.00   
   233. D(C  20,C  19,C  18,C  17)      0.00  0.000001   -0.00      0.00   
   234. D(H  35,C  19,C  18,C  17)   -180.00  0.000002   -0.00   -180.00   
   235. D(C  25,C  20,C  19,H  35)    180.00 -0.000001    0.00    180.00   
   236. D(C  25,C  20,C  19,C  18)      0.00  0.000000   -0.00      0.00   
   237. D(C  21,C  20,C  19,H  35)     -0.00 -0.000001    0.00     -0.00   
   238. D(C  21,C  20,C  19,C  18)   -180.00  0.000001   -0.00   -180.00   
   239. D(H  36,C  21,C  20,C  25)    180.00  0.000000   -0.00    180.00   
   240. D(H  36,C  21,C  20,C  19)     -0.00  0.000000    0.00     -0.00   
   241. D(C  22,C  21,C  20,C  25)     -0.00 -0.000001    0.00     -0.00   
   242. D(C  22,C  21,C  20,C  19)    180.00 -0.000001    0.00    180.00   
   243. D(H  37,C  22,C  21,H  36)     -0.00  0.000000    0.00     -0.00   
   244. D(C  23,C  22,C  21,C  20)      0.00  0.000001   -0.00      0.00   
   245. D(H  37,C  22,C  21,C  20)    180.00  0.000001   -0.00    180.00   
   246. D(C  23,C  22,C  21,H  36)   -180.00 -0.000000    0.00   -180.00   
   247. D(C  24,C  23,C  22,H  37)   -180.00  0.000000   -0.00   -180.00   
   248. D(C  24,C  23,C  22,C  21)     -0.00  0.000000   -0.00     -0.00   
   249. D(C   1,C  23,C  22,H  37)      0.00  0.000001   -0.00      0.00   
   250. D(C   1,C  23,C  22,C  21)   -180.00  0.000001   -0.00   -180.00   
   251. D(C  24,C  23,C   1,C   2)      0.01 -0.000000    0.00      0.01   
   252. D(C  24,C  23,C   1,O   0)   -179.99 -0.000004    0.00   -179.99   
   253. D(C  22,C  23,C   1,O   0)      0.01 -0.000005    0.01      0.01   
   254. D(C  22,C  23,C   1,C   2)   -180.00 -0.000001    0.00   -180.00   
   255. D(C  25,C  24,C  23,C  22)     -0.00 -0.000001    0.00     -0.00   
   256. D(C  25,C  24,C  23,C   1)    180.00 -0.000001    0.00    180.00   
   257. D(C  13,C  24,C  23,C  22)   -180.00  0.000000   -0.00   -180.00   
   258. D(C  13,C  24,C  23,C   1)     -0.00 -0.000000    0.00     -0.00   
   259. D(C  25,C  24,C  13,C  14)      0.00 -0.000000   -0.00      0.00   
   260. D(C  25,C  24,C  13,C  12)    180.00  0.000000   -0.00    180.00   
   261. D(C  23,C  24,C  13,C  14)    180.00 -0.000001    0.00    180.00   
   262. D(C  23,C  24,C  13,C  12)     -0.00 -0.000000    0.00     -0.00   
   263. D(C  20,C  25,C  24,C  23)      0.00  0.000001   -0.00      0.00   
   264. D(C  20,C  25,C  24,C  13)   -180.00 -0.000000    0.00   -180.00   
   265. D(C  16,C  25,C  24,C  23)   -180.00  0.000002   -0.00   -180.00   
   266. D(C  16,C  25,C  24,C  13)      0.00  0.000001   -0.00      0.00   
   267. D(C  24,C  25,C  20,C  21)     -0.00  0.000000   -0.00     -0.00   
   268. D(C  24,C  25,C  20,C  19)    180.00  0.000000   -0.00    180.00   
   269. D(C  16,C  25,C  20,C  21)    180.00 -0.000001    0.00    180.00   
   270. D(C  16,C  25,C  20,C  19)     -0.00 -0.000001    0.00     -0.00   
   271. D(C  24,C  25,C  16,C  17)    180.00 -0.000001    0.00    180.00   
   272. D(C  24,C  25,C  16,C  15)     -0.00 -0.000001    0.00     -0.00   
   273. D(C  20,C  25,C  16,C  17)     -0.00 -0.000001    0.00     -0.00   
   274. D(C  20,C  25,C  16,C  15)    180.00 -0.000001    0.00    180.00   
   275. D(H  43,H  27,C   7,C   8)    -11.84  0.000047   -0.02    -11.85   
   276. D(H  43,H  27,C   7,C   6)    168.17  0.000222   -0.03    168.14   
   277. D(H  42,H  28,C   8,C   9)   -125.49 -0.000123    0.00   -125.48   
   278. D(H  42,H  28,C   8,C   7)     54.51  0.000163   -0.01     54.50   
   279. D(H  41,H  28,C   8,H  43)     41.07  0.000288   -0.03     41.04   
   280. D(H  41,H  28,C   8,C   9)   -112.52 -0.000030   -0.01   -112.54   
   281. D(H  41,H  28,C   8,C   7)     67.47  0.000257   -0.03     67.45   
   282. D(C  38,H  28,C   8,H  43)     19.17  0.000094    0.01     19.18   
   283. D(C  38,H  28,C   8,C   9)   -134.42 -0.000223    0.03   -134.39   
   284. D(H  42,H  28,C   8,H  43)     28.10  0.000194   -0.02     28.09   
   285. D(C  38,H  28,C   8,C   7)     45.58  0.000063    0.01     45.59   
   286. D(H  43,H  28,C   8,C   9)   -153.59 -0.000318    0.02   -153.57   
   287. D(H  43,H  28,C   8,C   7)     26.41 -0.000031    0.00     26.41   
   288. D(H  43,C  38,H  28,H  42)   -108.76  0.000236   -0.11   -108.87   
   289. D(H  43,C  38,H  28,H  41)    143.88  0.000328   -0.16    143.72   
   290. D(H  43,C  38,H  28,C   8)    -78.96  0.000237   -0.12    -79.08   
   291. D(H  42,C  38,H  28,H  43)    108.76 -0.000236    0.11    108.87   
   292. D(H  42,C  38,H  28,H  41)   -107.36  0.000092   -0.05   -107.41   
   293. D(H  42,C  38,H  28,C   8)     29.79  0.000001   -0.00     29.79   
   294. D(H  41,C  38,H  28,H  43)   -143.88 -0.000328    0.16   -143.72   
   295. D(H  41,C  38,H  28,H  42)    107.36 -0.000092    0.05    107.41   
   296. D(H  41,C  38,H  28,C   8)    137.15 -0.000091    0.05    137.20   
   297. D(C  39,C  38,H  28,H  43)    -55.97 -0.000212    0.11    -55.86   
   298. D(C  39,C  38,H  28,H  42)   -164.72  0.000024    0.00   -164.72   
   299. D(C  39,C  38,H  28,H  41)     87.92  0.000116   -0.05     87.86   
   300. D(C  39,C  38,H  28,C   8)   -134.93  0.000025   -0.00   -134.94   
   301. D(H  28,H  41,C  38,H  43)    -28.90  0.000683   -0.25    -29.15   
   302. D(H  28,H  41,C  38,H  42)     87.88 -0.001068    0.32     88.20   
   303. D(H  28,H  41,C  38,C  39)   -150.51  0.000056   -0.01   -150.52   
   304. D(C  38,H  41,H  28,H  43)     17.23 -0.000138    0.08     17.31   
   305. D(C  38,H  41,H  28,H  42)    -36.69 -0.000222    0.08    -36.61   
[...]
   310. D(C  38,H  42,H  28,H  43)    -38.51 -0.000005   -0.01    -38.52   
   311. D(C  38,H  42,H  28,H  41)     38.57  0.000003    0.00     38.57   
   312. D(C  38,H  42,H  28,C   8)   -170.34 -0.000001   -0.08   -170.42   
   313. D(H  28,H  43,C  38,H  42)    -90.04 -0.000023   -0.02    -90.06   
   314. D(H  28,H  43,C  38,H  41)     29.98  0.000021   -0.00     29.97   
   315. D(H  28,H  43,C  38,C  39)    149.98  0.000012   -0.01    149.98   
   316. D(H  27,H  43,C  38,H  28)     35.87  0.000006    0.01     35.89   
   317. D(H  27,H  43,C  38,H  42)    -54.16 -0.000017   -0.00    -54.17   
   318. D(H  27,H  43,C  38,H  41)     65.85  0.000027    0.01     65.86   
   319. D(C   8,H  43,C  38,H  28)      9.42 -0.000004    0.01      9.43   
   320. D(C   8,H  43,C  38,H  42)    -80.61 -0.000027   -0.01    -80.62   
   321. D(C   8,H  43,C  38,H  41)     39.40  0.000017    0.00     39.41   
   322. D(H  27,H  43,H  28,H  42)    -88.64 -0.000021    0.11    -88.53   
   323. D(H  27,H  43,H  28,H  41)   -142.41 -0.000027    0.12   -142.30   
   324. D(H  27,H  43,H  28,C  38)   -125.16 -0.000018    0.11   -125.05   
   325. D(H  27,H  43,H  28,C   8)    -23.08  0.000010   -0.03    -23.11   
   326. D(C  38,H  43,H  28,H  42)     36.52 -0.000003   -0.01     36.51   
   327. D(C  38,H  43,H  28,H  41)    -17.25 -0.000008    0.00    -17.25   
   328. D(C   8,H  43,C  38,C  39)    159.41  0.000007    0.00    159.41   
   329. D(C  38,H  43,H  28,C   8)    102.08  0.000028   -0.14    101.94   
   330. D(H  28,H  43,H  27,C   7)     17.79 -0.000019    0.03     17.82   
   331. D(C   8,H  43,H  27,C   7)     10.22 -0.000011    0.02     10.23   
   332. D(H  27,H  43,C  38,C  39)   -174.14  0.000017    0.01   -174.13   
   333. D(C  38,H  43,H  27,C   7)    -53.21 -0.000011   -0.05    -53.27   
   334. D(H  27,H  43,C   8,H  28)    150.50  0.000017   -0.04    150.45   
   335. D(H  27,H  43,C   8,C   9)   -164.87  0.000005    0.03   -164.84   
   336. D(H  27,H  43,C   8,C   7)     -6.77  0.000007   -0.01     -6.79   
   337. D(C  38,H  43,C   8,H  28)    -80.83  0.000027   -0.14    -80.97   
   338. D(C  38,H  43,C   8,C   9)    -36.19  0.000015   -0.07    -36.26   
   339. D(C  38,H  43,C   8,C   7)    121.90  0.000018   -0.11    121.79   
    ----------------------------------------------------------------------------
                 *******************************************************
                 *** FINAL ENERGY EVALUATION AT THE STATIONARY POINT ***
                 ***               (AFTER   47 CYCLES)               ***
                 *******************************************************
---------------------------------
CARTESIAN COORDINATES (ANGSTROEM)
---------------------------------
  O     1.287892    0.907729   -1.979383
  C     0.642890    0.479642   -1.035251
  C     1.253584   -0.143829    0.158575
  C     2.677379   -0.280854    0.202343
  N     3.496170    0.015389   -0.733878
  C     4.789011   -0.213142   -0.418138
  C     5.885631    0.018827   -1.247491
  C     7.147353   -0.266471   -0.775814
  C     7.337960   -0.780409    0.507667
  C     6.269342   -1.019704    1.348857
  C     4.996168   -0.736194    0.884899
  S     3.477784   -0.926378    1.690002
  C     0.473954   -0.578261    1.200706
  C    -0.929457   -0.475270    1.204639
  C    -1.711508   -0.931413    2.287342
  C    -3.071362   -0.826944    2.269867
  C    -3.751640   -0.255849    1.160774
  C    -5.144988   -0.138583    1.119202
  C    -5.776311    0.423999    0.020814
  C    -5.042908    0.880371   -1.054816
  C    -3.640018    0.784742   -1.060291
  C    -2.853814    1.241622   -2.142870
  C    -1.488684    1.133692   -2.113944
  C    -0.828346    0.566835   -1.013899
  C    -1.578299    0.102411    0.078789
  C    -2.988840    0.210104    0.059858
  H     5.718265    0.415956   -2.235318
  H     8.005119   -0.091970   -1.408333
  H     8.339161   -0.994364    0.851127
  H     6.415672   -1.417278    2.341241
  H     0.950970   -1.027507    2.062925
  H    -1.207828   -1.368496    3.137685
  H    -3.658209   -1.179711    3.105644
  H    -5.728725   -0.492946    1.956308
  H    -6.853298    0.505011    0.008922
  H    -5.540816    1.317996   -1.907636
  H    -3.350366    1.679286   -2.996717
  H    -0.880709    1.480903   -2.936408
  C    12.045387    0.828771    1.004190
  C    13.464260    0.759093    1.220666
  N    14.592345    0.702825    1.393193
  H    11.524860    0.530231    1.913498
  H    11.767239    1.849759    0.745436
  H    11.769583    0.160223    0.189429

----------------------------
CARTESIAN COORDINATES (A.U.)
----------------------------
  NO LB    ZA    FRAG    MASS        X           Y           Z
   0 O   8.0000    0    15.999    2.433763    1.715358   -3.740493
   1 C   6.0000    0    12.011    1.214886    0.906392   -1.956342
   2 C   6.0000    0    12.011    2.368931   -0.271798    0.299664
   3 C   6.0000    0    12.011    5.059514   -0.530736    0.382374
   4 N   7.0000    0    14.007    6.606803    0.029081   -1.386828
   5 C   6.0000    0    12.011    9.049920   -0.402781   -0.790166
   6 C   6.0000    0    12.011   11.122231    0.035579   -2.357416
   7 C   6.0000    0    12.011   13.506539   -0.503558   -1.466075
   8 C   6.0000    0    12.011   13.866735   -1.474759    0.959352
   9 C   6.0000    0    12.011   11.847339   -1.926960    2.548970
  10 C   6.0000    0    12.011    9.441389   -1.391205    1.672216
  11 S  16.0000    0    32.060    6.572059   -1.750600    3.193640
  12 C   6.0000    0    12.011    0.895642   -1.092754    2.269006
  13 C   6.0000    0    12.011   -1.756420   -0.898129    2.276439
  14 C   6.0000    0    12.011   -3.234281   -1.760116    4.322451
  15 C   6.0000    0    12.011   -5.804033   -1.562697    4.289428
  16 C   6.0000    0    12.011   -7.089572   -0.483485    2.193544
  17 C   6.0000    0    12.011   -9.722618   -0.261884    2.114985
  18 C   6.0000    0    12.011  -10.915646    0.801241    0.039332
  19 C   6.0000    0    12.011   -9.529715    1.663661   -1.993314
  20 C   6.0000    0    12.011   -6.878638    1.482947   -2.003659
  21 C   6.0000    0    12.011   -5.392927    2.346326   -4.049437
  22 C   6.0000    0    12.011   -2.813204    2.142367   -3.994776
  23 C   6.0000    0    12.011   -1.565347    1.071163   -1.915991
  24 C   6.0000    0    12.011   -2.982552    0.193528    0.148889
  25 C   6.0000    0    12.011   -5.648088    0.397038    0.113114
  26 H   1.0000    0     1.008   10.805955    0.786042   -4.224139
  27 H   1.0000    0     1.008   15.127482   -0.173799   -2.661363
  28 H   1.0000    0     1.008   15.758731   -1.879076    1.608397
  29 H   1.0000    0     1.008   12.123863   -2.678267    4.424304
  30 H   1.0000    0     1.008    1.797072   -1.941707    3.898364
  31 H   1.0000    0     1.008   -2.282464   -2.586082    5.929364
  32 H   1.0000    0     1.008   -6.913013   -2.229331    5.868817
  33 H   1.0000    0     1.008  -10.825721   -0.931534    3.696886
  34 H   1.0000    0     1.008  -12.950856    0.954332    0.016861
  35 H   1.0000    0     1.008  -10.470625    2.490651   -3.604909
  36 H   1.0000    0     1.008   -6.331275    3.173391   -5.662974
  37 H   1.0000    0     1.008   -1.664299    2.798502   -5.549007
  38 C   6.0000    0    12.011   22.762483    1.566149    1.897643
  39 C   6.0000    0    12.011   25.443764    1.434479    2.306725
  40 N   7.0000    0    14.007   27.575536    1.328148    2.632752
  41 H   1.0000    0     1.008   21.778829    1.001991    3.615988
  42 H   1.0000    0     1.008   22.236859    3.495538    1.408670
  43 H   1.0000    0     1.008   22.241289    0.302778    0.357970

      -----------------------------------------------------------      
     |                   =====================                   |     
     |                           x T B                           |     
     |                   =====================                   |     
     |                         S. Grimme                         |     
     |          Mulliken Center for Theoretical Chemistry        |     
     |                    University of Bonn                     |     
      -----------------------------------------------------------      

   * xtb version 6.6.1 (8d0f1dd) compiled by 'stahn@M-Bot' on 2023-08-01

   xtb is free software: you can redistribute it and/or modify it under
   the terms of the GNU Lesser General Public License as published by
   the Free Software Foundation, either version 3 of the License, or
   (at your option) any later version.
   
   xtb is distributed in the hope that it will be useful,
   but WITHOUT ANY WARRANTY; without even the implied warranty of
   MERCHANTABILITY or FITNESS FOR A PARTICULAR PURPOSE.  See the
   GNU Lesser General Public License for more details.
   
   Cite this work as:
   * C. Bannwarth, E. Caldeweyher, S. Ehlert, A. Hansen, P. Pracht,
     J. Seibert, S. Spicher, S. Grimme, WIREs Comput. Mol. Sci., 2020, 11,
     e01493. DOI: 10.1002/wcms.1493
   
   for GFN2-xTB:
   * C. Bannwarth, S. Ehlert and S. Grimme., J. Chem. Theory Comput., 2019,
     15, 1652-1671. DOI: 10.1021/acs.jctc.8b01176
   for GFN1-xTB:
   * S. Grimme, C. Bannwarth, P. Shushkov, J. Chem. Theory Comput., 2017,
     13, 1989-2009. DOI: 10.1021/acs.jctc.7b00118
   for GFN0-xTB:
   * P. Pracht, E. Caldeweyher, S. Ehlert, S. Grimme, ChemRxiv, 2019, preprint.
     DOI: 10.26434/chemrxiv.8326202.v1
   for GFN-FF:
   * S. Spicher and S. Grimme, Angew. Chem. Int. Ed., 2020, 59, 15665-15673.
     DOI: 10.1002/anie.202004239
   
   for ALPB and GBSA implicit solvation:
   * S. Ehlert, M. Stahn, S. Spicher, S. Grimme, J. Chem. Theory Comput.,
     2021, 17, 4250-4261. DOI: 10.1021/acs.jctc.1c00471
   
   for DFT-D4:
   * E. Caldeweyher, C. Bannwarth and S. Grimme, J. Chem. Phys., 2017,
     147, 034112. DOI: 10.1063/1.4993215
   * E. Caldeweyher, S. Ehlert, A. Hansen, H. Neugebauer, S. Spicher,
     C. Bannwarth and S. Grimme, J. Chem. Phys., 2019, 150, 154122.
     DOI: 10.1063/1.5090222
   * E. Caldeweyher, J.-M. Mewes, S. Ehlert and S. Grimme, Phys. Chem. Chem. Phys.
     2020, 22, 8499-8512. DOI: 10.1039/D0CP00502A
   
   for sTDA-xTB:
   * S. Grimme and C. Bannwarth, J. Chem. Phys., 2016, 145, 054103.
     DOI: 10.1063/1.4959605
   
   in the mass-spec context:
   * V. Asgeirsson, C. Bauer and S. Grimme, Chem. Sci., 2017, 8, 4879.
     DOI: 10.1039/c7sc00601b
   * J. Koopman and S. Grimme, ACS Omega 2019, 4, 12, 15120-15133.
     DOI: 10.1021/acsomega.9b02011
   
   for metadynamics refer to:
   * S. Grimme, J. Chem. Theory Comput., 2019, 155, 2847-2862
     DOI: 10.1021/acs.jctc.9b00143
   
   for SPH calculations refer to:
   * S. Spicher and S. Grimme, J. Chem. Theory Comput., 2021, 17, 1701-1714
     DOI: 10.1021/acs.jctc.0c01306
   
   with help from (in alphabetical order)
   P. Atkinson, C. Bannwarth, F. Bohle, G. Brandenburg, E. Caldeweyher
   M. Checinski, S. Dohm, S. Ehlert, S. Ehrlich, I. Gerasimov, C. Hölzer
   A. Katbashev, J. Koopman, C. Lavigne, S. Lehtola, F. März, M. Müller,
   F. Musil, H. Neugebauer, J. Pisarek, C. Plett, P. Pracht, F. Pultar,
   J. Seibert, P. Shushkov, S. Spicher, M. Stahn, M. Steiner, T. Strunk,
   J. Stückrath, T. Rose, and J. Unsleber
   
 * started run on 2025/01/14 at 21:24:54.140     

           -------------------------------------------------
          |                Calculation Setup                |
           -------------------------------------------------

          program call               : /home/jang/cal_tmp/10_orca/orca_5_0_4_linux_x86-64_shared_openmpi411/otool_xtb /home/jang/cal_tmp/10_orca/Gen_chromophore/Gen_molecular_pairs_cal/mol_4_1.xyz/input_XTB.xyz --grad -c 0 -u 0 -P 4 --namespace /home/jang/cal_tmp/10_orca/Gen_chromophore/Gen_molecular_pairs_cal/mol_4_1.xyz/input --input /home/jang/cal_tmp/10_orca/Gen_chromophore/Gen_molecular_pairs_cal/mol_4_1.xyz/input_XTB.input.tmp --acc 1.000000
          hostname                   : node02
          calculation namespace      : /home/jang/cal_tmp/10_orca/Gen_chromophore/Gen_molecular_pairs_cal/mol_4_1.xyz/input
          coordinate file            : /home/jang/cal_tmp/10_orca/Gen_chromophore/Gen_molecular_pairs_cal/mol_4_1.xyz/input_XTB.xyz
          omp threads                :                     4

   ID    Z sym.   atoms
    1    8 O      1
    2    6 C      2-4, 6-11, 13-26, 39, 40
    3    7 N      5, 41
    4   16 S      12
    5    1 H      27-38, 42-44

molecular fragmentation (1/2 indicates fragments):
11111111111111111111111111111111111111222222
# atoms in fragment 1/2:    38     6
 fragment masses (1/2) :      350.41       41.05
CMA distance (Bohr)    :  24.120
constraining FC (au)   :  0.0500

           -------------------------------------------------
          |                 G F N 2 - x T B                 |
           -------------------------------------------------

        Reference                      10.1021/acs.jctc.8b01176
      * Hamiltonian:
        H0-scaling (s, p, d)           1.850000    2.230000    2.230000
        zeta-weighting                 0.500000
      * Dispersion:
        s8                             2.700000
        a1                             0.520000
        a2                             5.000000
        s9                             5.000000
      * Repulsion:
        kExp                           1.500000    1.000000
        rExp                           1.000000
      * Coulomb:
        alpha                          2.000000
        third order                    shell-resolved
        anisotropic                    true
        a3                             3.000000
        a5                             4.000000
        cn-shift                       1.200000
        cn-exp                         4.000000
        max-rad                        5.000000

q/qsh data taken from xtbrestart
CAMM data taken from xtbrestart

          ...................................................
          :                      SETUP                      :
          :.................................................:
          :  # basis functions                 137          :
          :  # atomic orbitals                 136          :
          :  # shells                           74          :
          :  # electrons                       137          :
          :  max. iterations                   250          :
          :  Hamiltonian                  GFN2-xTB          :
          :  restarted?                       true          :
          :  GBSA solvation                  false          :
          :  PC potential                    false          :
          :  electronic temp.          300.0000000     K    :
          :  accuracy                    1.0000000          :
          :  -> integral cutoff          0.2500000E+02      :
          :  -> integral neglect         0.1000000E-07      :
          :  -> SCF convergence          0.1000000E-05 Eh   :
          :  -> wf. convergence          0.1000000E-03 e    :
          :  Broyden damping             0.4000000          :
          ...................................................

 iter      E             dE          RMSdq      gap      omega  full diag
   1    -75.6188849 -0.756189E+02  0.903E-03    1.75       0.0  T
   2    -75.6188849 -0.216571E-07  0.520E-03    1.75       2.9  T
   3    -75.6188849  0.133543E-07  0.699E-04    1.75      21.6  T
   4    -75.6188849 -0.198932E-07  0.315E-04    1.75      47.9  T

   *** convergence criteria satisfied after 4 iterations ***

         #    Occupation            Energy/Eh            Energy/eV
      -------------------------------------------------------------
         1        2.0000           -0.7314952             -19.9050
       ...           ...                  ...                  ...
        63        2.0000           -0.4220160             -11.4836
        64        2.0000           -0.4216190             -11.4728
        65        2.0000           -0.3951581             -10.7528
        66        2.0000           -0.3946525             -10.7390
        67        2.0000           -0.3894349             -10.5971
        68        2.0000           -0.3777342             -10.2787
        69        1.0000           -0.3582751              -9.7492 (HOMO)
        70                         -0.2940699              -8.0021 (LUMO)
        71                         -0.2718544              -7.3975
        72                         -0.2455418              -6.6815
        73                         -0.2436956              -6.6313
        74                         -0.2363949              -6.4326
       ...                                ...                  ...
       136                          1.1493341              31.2750
      -------------------------------------------------------------
                  HL-Gap            0.0642051 Eh            1.7471 eV
             Fermi-level           -0.3470886 Eh           -9.4448 eV

 SCC (total)                   0 d,  0 h,  0 min,  0.073 sec
 SCC setup                      ...        0 min,  0.001 sec (  0.752%)
 Dispersion                     ...        0 min,  0.001 sec (  1.611%)
 classical contributions        ...        0 min,  0.000 sec (  0.203%)
 integral evaluation            ...        0 min,  0.025 sec ( 33.863%)
 iterations                     ...        0 min,  0.029 sec ( 40.340%)
 molecular gradient             ...        0 min,  0.016 sec ( 22.399%)
 printout                       ...        0 min,  0.001 sec (  0.745%)

         :::::::::::::::::::::::::::::::::::::::::::::::::::::
         ::                     SUMMARY                     ::
         :::::::::::::::::::::::::::::::::::::::::::::::::::::
         :: total energy             -74.303106325580 Eh    ::
         :: gradient norm              0.000949555946 Eh/a0 ::
         :: HOMO-LUMO gap              1.747110219432 eV    ::
         ::.................................................::
         :: SCC energy               -75.618884923239 Eh    ::
         :: -> isotropic ES            0.045695773617 Eh    ::
         :: -> anisotropic ES          0.005326839558 Eh    ::
         :: -> anisotropic XC          0.051722406621 Eh    ::
         :: -> dispersion             -0.054706628023 Eh    ::
         :: repulsion energy           1.316443892530 Eh    ::
         :: add. restraining           0.000000000000 Eh    ::
         :: total charge               0.000000000161 e     ::
         :::::::::::::::::::::::::::::::::::::::::::::::::::::


Property printout bound to 'properties.out'

           -------------------------------------------------
          | TOTAL ENERGY              -74.303106325580 Eh   |
          | GRADIENT NORM               0.000949555946 Eh/α |
          | HOMO-LUMO GAP               1.747110219432 eV   |
           -------------------------------------------------

------------------------------------------------------------------------
 * finished run on 2025/01/14 at 21:24:54.503     
------------------------------------------------------------------------
 total:
 * wall-time:     0 d,  0 h,  0 min,  0.361 sec
 *  cpu-time:     0 d,  0 h,  0 min,  0.883 sec
 * ratio c/w:     2.443 speedup
 SCF:
 * wall-time:     0 d,  0 h,  0 min,  0.073 sec
 *  cpu-time:     0 d,  0 h,  0 min,  0.276 sec
 * ratio c/w:     3.791 speedup


-------------------------   --------------------
FINAL SINGLE POINT ENERGY       -74.303106325580
-------------------------   --------------------

                                *** OPTIMIZATION RUN DONE ***

Timings for individual modules:

Sum of individual times         ...      140.371 sec (=   2.340 min)
Geometry relaxation             ...       57.893 sec (=   0.965 min)  41.2 %
XTB module                      ...       82.478 sec (=   1.375 min)  58.8 %
                             ****ORCA TERMINATED NORMALLY****
TOTAL RUN TIME: 0 days 0 hours 7 minutes 40 seconds 506 msec
