
                                 *****************
                                 * O   R   C   A *
                                 *****************

                                            #,                                       
                                            ###                                      
                                            ####                                     
                                            #####                                    
                                            ######                                   
                                           ########,                                 
                                     ,,################,,,,,                         
                               ,,#################################,,                 
                          ,,##########################################,,             
                       ,#########################################, ''#####,          
                    ,#############################################,,   '####,        
                  ,##################################################,,,,####,       
                ,###########''''           ''''###############################       
              ,#####''   ,,,,##########,,,,          '''####'''          '####       
            ,##' ,,,,###########################,,,                        '##       
           ' ,,###''''                  '''############,,,                           
         ,,##''                                '''############,,,,        ,,,,,,###''
      ,#''                                            '''#######################'''  
     '                                                          ''''####''''         
             ,#######,   #######,   ,#######,      ##                                
            ,#'     '#,  ##    ##  ,#'     '#,    #''#        ######   ,####,        
            ##       ##  ##   ,#'  ##            #'  '#       #        #'  '#        
            ##       ##  #######   ##           ,######,      #####,   #    #        
            '#,     ,#'  ##    ##  '#,     ,#' ,#      #,         ##   #,  ,#        
             '#######'   ##     ##  '#######'  #'      '#     #####' # '####'        



                  #######################################################
                  #                        -***-                        #
                  #          Department of theory and spectroscopy      #
                  #    Directorship and core code : Frank Neese         #
                  #        Max Planck Institute fuer Kohlenforschung    #
                  #                Kaiser Wilhelm Platz 1               #
                  #                 D-45470 Muelheim/Ruhr               #
                  #                      Germany                        #
                  #                                                     #
                  #                  All rights reserved                #
                  #                        -***-                        #
                  #######################################################


                         Program Version 5.0.4 -  RELEASE  -


 With contributions from (in alphabetic order):
   Daniel Aravena         : Magnetic Suceptibility
   Michael Atanasov       : Ab Initio Ligand Field Theory (pilot matlab implementation)
   Alexander A. Auer      : GIAO ZORA, VPT2 properties, NMR spectrum
   Ute Becker             : Parallelization
   Giovanni Bistoni       : ED, misc. LED, open-shell LED, HFLD
   Martin Brehm           : Molecular dynamics
   Dmytro Bykov           : SCF Hessian
   Vijay G. Chilkuri      : MRCI spin determinant printing, contributions to CSF-ICE
   Dipayan Datta          : RHF DLPNO-CCSD density
   Achintya Kumar Dutta   : EOM-CC, STEOM-CC
   Dmitry Ganyushin       : Spin-Orbit,Spin-Spin,Magnetic field MRCI
   Miquel Garcia          : C-PCM and meta-GGA Hessian, CC/C-PCM, Gaussian charge scheme
   Yang Guo               : DLPNO-NEVPT2, F12-NEVPT2, CIM, IAO-localization
   Andreas Hansen         : Spin unrestricted coupled pair/coupled cluster methods
   Benjamin Helmich-Paris : MC-RPA, TRAH-SCF, COSX integrals
   Lee Huntington         : MR-EOM, pCC
   Robert Izsak           : Overlap fitted RIJCOSX, COSX-SCS-MP3, EOM
   Marcus Kettner         : VPT2
   Christian Kollmar      : KDIIS, OOCD, Brueckner-CCSD(T), CCSD density, CASPT2, CASPT2-K
   Simone Kossmann        : Meta GGA functionals, TD-DFT gradient, OOMP2, MP2 Hessian
   Martin Krupicka        : Initial AUTO-CI
   Lucas Lang             : DCDCAS
   Marvin Lechner         : AUTO-CI (C++ implementation), FIC-MRCC
   Dagmar Lenk            : GEPOL surface, SMD
   Dimitrios Liakos       : Extrapolation schemes; Compound Job, initial MDCI parallelization
   Dimitrios Manganas     : Further ROCIS development; embedding schemes
   Dimitrios Pantazis     : SARC Basis sets
   Anastasios Papadopoulos: AUTO-CI, single reference methods and gradients
   Taras Petrenko         : DFT Hessian,TD-DFT gradient, ASA, ECA, R-Raman, ABS, FL, XAS/XES, NRVS
   Peter Pinski           : DLPNO-MP2, DLPNO-MP2 Gradient
   Christoph Reimann      : Effective Core Potentials
   Marius Retegan         : Local ZFS, SOC
   Christoph Riplinger    : Optimizer, TS searches, QM/MM, DLPNO-CCSD(T), (RO)-DLPNO pert. Triples
   Tobias Risthaus        : Range-separated hybrids, TD-DFT gradient, RPA, STAB
   Michael Roemelt        : Original ROCIS implementation
   Masaaki Saitow         : Open-shell DLPNO-CCSD energy and density
   Barbara Sandhoefer     : DKH picture change effects
   Avijit Sen             : IP-ROCIS
   Kantharuban Sivalingam : CASSCF convergence, NEVPT2, FIC-MRCI
   Bernardo de Souza      : ESD, SOC TD-DFT
   Georgi Stoychev        : AutoAux, RI-MP2 NMR, DLPNO-MP2 response
   Willem Van den Heuvel  : Paramagnetic NMR
   Boris Wezisla          : Elementary symmetry handling
   Frank Wennmohs         : Technical directorship


 We gratefully acknowledge several colleagues who have allowed us to
 interface, adapt or use parts of their codes:
   Stefan Grimme, W. Hujo, H. Kruse, P. Pracht,  : VdW corrections, initial TS optimization,
                  C. Bannwarth, S. Ehlert          DFT functionals, gCP, sTDA/sTD-DF
   Ed Valeev, F. Pavosevic, A. Kumar             : LibInt (2-el integral package), F12 methods
   Garnet Chan, S. Sharma, J. Yang, R. Olivares  : DMRG
   Ulf Ekstrom                                   : XCFun DFT Library
   Mihaly Kallay                                 : mrcc  (arbitrary order and MRCC methods)
   Jiri Pittner, Ondrej Demel                    : Mk-CCSD
   Frank Weinhold                                : gennbo (NPA and NBO analysis)
   Christopher J. Cramer and Donald G. Truhlar   : smd solvation model
   Lars Goerigk                                  : TD-DFT with DH, B97 family of functionals
   V. Asgeirsson, H. Jonsson                     : NEB implementation
   FAccTs GmbH                                   : IRC, NEB, NEB-TS, DLPNO-Multilevel, CI-OPT
                                                   MM, QMMM, 2- and 3-layer-ONIOM, Crystal-QMMM,
                                                   LR-CPCM, SF, NACMEs, symmetry and pop. for TD-DFT,
                                                   nearIR, NL-DFT gradient (VV10), updates on ESD,
                                                   ML-optimized integration grids
   S Lehtola, MJT Oliveira, MAL Marques          : LibXC Library
   Liviu Ungur et al                             : ANISO software


 Your calculation uses the libint2 library for the computation of 2-el integrals
 For citations please refer to: http://libint.valeyev.net

 Your ORCA version has been built with support for libXC version: 5.1.0
 For citations please refer to: https://tddft.org/programs/libxc/

 This ORCA versions uses:
   CBLAS   interface :  Fast vector & matrix operations
   LAPACKE interface :  Fast linear algebra routines
   SCALAPACK package :  Parallel linear algebra routines
   Shared memory     :  Shared parallel matrices
   BLAS/LAPACK       :  OpenBLAS 0.3.15  USE64BITINT DYNAMIC_ARCH NO_AFFINITY SkylakeX SINGLE_THREADED
        Core in use  :  SkylakeX
   Copyright (c) 2011-2014, The OpenBLAS Project




***************************************
The coordinates will be read from file: mol.xyz
***************************************


Your calculation utilizes the atom-pairwise dispersion correction
with the Becke-Johnson damping scheme (D3BJ)
Cite in your paper:
S.Grimme, S.Ehrlich, L.Goerigk, J Comput Chem, (2011), 32, 1456–1465 
S.Grimme, J.Antony, S.Ehrlich and H.Krieg, J.Chem.Phys., 132, (2010), 154104 
   

Your calculation utilizes the semiempirical GFN2-xTB method
Please cite in your paper:
C. Bannwarth, Ehlert S., S. Grimme,  J. Chem. Theory Comput., 15, (2019), 1652.
   

================================================================================

----- Orbital basis set information -----
Your calculation utilizes the basis: def2-SVP
   F. Weigend and R. Ahlrichs, Phys. Chem. Chem. Phys. 7, 3297 (2005).

----- AuxJ basis set information -----
Your calculation utilizes the auxiliary basis: def2/J
   F. Weigend, Phys. Chem. Chem. Phys. 8, 1057 (2006).

================================================================================
                                        WARNINGS
                       Please study these warnings very carefully!
================================================================================


WARNING: Geometry Optimization
  ===> : Switching off AutoStart
         For restart on a previous wavefunction, please use MOREAD

WARNING: Found dipole moment calculation with XTB calculation
  ===> : Switching off dipole moment calculation


WARNING: TRAH-SCF for XTB is not implemented!
  ===> : Turning TRAH off!

================================================================================
                                       INPUT FILE
================================================================================
NAME = /home/jang/cal_tmp/10_orca/Gen_chromophore/Gen_molecular_pairs_cal/mol_2_9.xyz/input.inp
|  1> ! B3LYP D3BJ def2-SVP TightSCF XTB Opt PAL8
|  2> 
|  3> %geom
|  4>   MaxIter 3000
|  5> end
|  6> 
|  7> * xyzfile 0 1 mol.xyz
|  8> 
|  9> %pal nprocs 4 # any number (positive integer)
| 10> end
| 11> 
| 12>                          ****END OF INPUT****
================================================================================

                       *****************************
                       * Geometry Optimization Run *
                       *****************************

Geometry optimization settings:
Update method            Update   .... BFGS
Choice of coordinates    CoordSys .... Z-matrix Internals
Initial Hessian          InHess   .... Almoef's Model

Convergence Tolerances:
Energy Change            TolE     ....  5.0000e-06 Eh
Max. Gradient            TolMAXG  ....  3.0000e-04 Eh/bohr
RMS Gradient             TolRMSG  ....  1.0000e-04 Eh/bohr
Max. Displacement        TolMAXD  ....  4.0000e-03 bohr
RMS Displacement         TolRMSD  ....  2.0000e-03 bohr
Strict Convergence                ....  False
------------------------------------------------------------------------------
                        ORCA OPTIMIZATION COORDINATE SETUP
------------------------------------------------------------------------------

The optimization will be done in new redundant internal coordinates
Making redundant internal coordinates   ...  (new redundants) done
Evaluating the initial hessian          ...  (Almloef) done
Evaluating the coordinates              ...  done
Calculating the B-matrix                .... done
Calculating the G-matrix                .... done
Diagonalizing the G-matrix              .... done
The first mode is                       ....  122
The number of degrees of freedom        ....   57

    -----------------------------------------------------------------
                    Redundant Internal Coordinates


    -----------------------------------------------------------------
         Definition                    Initial Value    Approx d2E/dq
    -----------------------------------------------------------------
      1. B(C   1,N   0)                  1.1617         1.294464   
      2. B(C   2,C   1)                  1.4203         0.558906   
      3. B(C   3,C   2)                  1.3407         0.748977   
      4. B(C   4,C   3)                  1.4517         0.498162   
      5. B(C   5,C   4)                  1.3886         0.628017   
      6. B(C   6,C   5)                  1.4030         0.595707   
      7. B(C   7,C   6)                  1.4095         0.581595   
      8. B(O   8,C   7)                  1.2731         0.859781   
      9. B(C   9,C   7)                  1.4064         0.588194   
     10. B(C  10,C   9)                  1.3965         0.610165   
     11. B(C  10,C   4)                  1.3862         0.633503   
     12. B(O  11,C  10)                  1.4084         0.522996   
     13. B(C  12,O  11)                  1.3886         0.562544   
     14. B(C  12,C   2)                  1.4794         0.449829   
     15. B(O  13,C  12)                  1.2282         1.014053   
     16. B(H  14,C   3)                  1.0854         0.366227   
     17. B(H  15,C   5)                  1.0846         0.367344   
     18. B(H  16,C   6)                  1.0904         0.359540   
     19. B(H  17,C   9)                  1.0885         0.362113   
     20. B(O  18,O  13)                  5.3097         0.000000   
     21. B(O  18,C  12)                  5.2860         0.000000   
     22. B(O  18,O  11)                  4.9865         0.000001   
     23. B(O  18,C  10)                  5.5057         0.000000   
     24. B(O  18,H  17)                  5.4725         0.000000   
     25. B(H  19,O  18)                  0.9690         0.503047   
     26. B(H  20,O  13)                  4.5748         0.000001   
     27. B(H  20,C  12)                  4.7258         0.000001   
     28. B(H  20,O  11)                  4.6051         0.000001   
     29. B(H  20,C  10)                  5.3436         0.000000   
     30. B(H  20,C   2)                  5.6047         0.000000   
     31. B(H  20,O  18)                  0.9690         0.503047   
     32. B(H  20,H  17)                  5.4810         0.000000   
     33. L(N   0,C   1,C   2,C   3, 2) 180.0001         0.483890   
     34. L(N   0,C   1,C   2,C   3, 1) 176.9664         0.483890   
     35. A(C   1,C   2,C  12)          118.1964         0.402448   
     36. A(C   1,C   2,C   3)          120.2626         0.440789   
     37. A(C   3,C   2,C  12)          121.5410         0.423919   
     38. A(C   2,C   3,H  14)          122.0778         0.365496   
     39. A(C   4,C   3,H  14)          117.9411         0.341119   
     40. A(C   2,C   3,C   4)          119.9811         0.431746   
     41. A(C   3,C   4,C  10)          119.2042         0.418999   
     42. A(C   5,C   4,C  10)          118.4668         0.436763   
     43. A(C   3,C   4,C   5)          122.3290         0.418350   
     44. A(C   4,C   5,H  15)          121.7345         0.354873   
     45. A(C   6,C   5,H  15)          118.6348         0.351714   
     46. A(C   4,C   5,C   6)          119.6307         0.431954   
     47. A(C   5,C   6,H  16)          118.6857         0.350440   
     48. A(C   7,C   6,H  16)          117.8867         0.349025   
     49. A(C   5,C   6,C   7)          123.4275         0.426045   
     50. A(O   8,C   7,C   9)          122.6345         0.453147   
     51. A(C   6,C   7,O   8)          122.3942         0.452218   
     52. A(C   6,C   7,C   9)          114.9713         0.425078   
     53. A(C  10,C   9,H  17)          119.4361         0.352287   
     54. A(C   7,C   9,H  17)          118.5678         0.350111   
     55. A(C   7,C   9,C  10)          121.9961         0.428746   
     56. A(C   4,C  10,O  11)          120.7891         0.419908   
     57. A(C   4,C  10,C   9)          121.5076         0.434500   
     58. A(C   9,C  10,O  18)           91.4061         0.099876   
     59. A(O  11,C  10,O  18)           61.3699         0.099417   
     60. A(C   4,C  10,O  18)          115.9504         0.099969   
     61. A(C   9,C  10,O  11)          117.7033         0.417108   
     62. A(C  10,O  11,C  12)          121.3283         0.408478   
     63. A(C  12,O  11,O  18)           94.7573         0.104772   
     64. A(C  10,O  11,O  18)          104.2761         0.104513   
     65. A(O  11,C  12,O  13)          121.2293         0.460131   
     66. A(O  13,C  12,O  18)           84.4433         0.103526   
     67. A(O  11,C  12,O  18)           70.0668         0.101712   
     68. A(C   2,C  12,O  18)          116.1220         0.101185   
     69. A(C   2,C  12,O  13)          121.6144         0.444743   
     70. A(C   2,C  12,O  11)          117.1563         0.400326   
     71. A(C  12,O  13,O  18)           82.2466         0.102775   
     72. A(H  19,O  18,H  20)          103.9780         0.318375   
     73. A(C  12,O  18,O  13)           13.3100         0.089472   
     74. A(O  11,O  18,O  13)           25.3538         0.089585   
     75. A(C  10,O  18,O  13)           38.3945         0.089393   
     76. A(O  13,O  18,H  20)           37.1425         0.099131   
     77. A(O  13,O  18,H  19)          118.7751         0.099131   
     78. A(O  11,O  18,C  12)           15.1759         0.089617   
     79. A(C  10,O  18,C  12)           26.0143         0.089414   
     80. A(C  12,O  18,H  20)           50.2712         0.099683   
     81. A(C  12,O  18,H  19)          119.0426         0.099683   
     82. A(C  10,O  18,O  11)           14.3539         0.089514   
     83. A(O  11,O  18,H  20)           61.5968         0.102254   
     84. A(O  11,O  18,H  19)          130.3335         0.102254   
     85. A(C  10,O  18,H  20)           75.3593         0.097899   
     86. A(C  10,O  18,H  19)          126.0555         0.097899   
     87. D(C   4,C   3,C   2,C  12)     -0.0000         0.043531   
     88. D(C   4,C   3,C   2,C   1)   -180.0000         0.043531   
     89. D(H  14,C   3,C   2,C   1)      0.0000         0.043531   
     90. D(H  14,C   3,C   2,C  12)   -180.0000         0.043531   
     91. D(C  10,C   4,C   3,H  14)   -180.0000         0.016902   
     92. D(C  10,C   4,C   3,C   2)      0.0000         0.016902   
     93. D(C   5,C   4,C   3,C   2)   -180.0000         0.016902   
     94. D(C   5,C   4,C   3,H  14)     -0.0000         0.016902   
     95. D(H  15,C   5,C   4,C   3)      0.0000         0.027335   
     96. D(C   6,C   5,C   4,C   3)   -180.0000         0.027335   
     97. D(H  15,C   5,C   4,C  10)   -180.0000         0.027335   
     98. D(C   6,C   5,C   4,C  10)      0.0000         0.027335   
     99. D(H  16,C   6,C   5,C   4)    179.9999         0.024445   
    100. D(C   7,C   6,C   5,H  15)    180.0000         0.024445   
    101. D(C   7,C   6,C   5,C   4)     -0.0000         0.024445   
    102. D(H  16,C   6,C   5,H  15)     -0.0001         0.024445   
    103. D(O   8,C   7,C   6,H  16)      0.0000         0.023245   
    104. D(C   9,C   7,C   6,H  16)   -179.9999         0.023245   
    105. D(O   8,C   7,C   6,C   5)   -180.0000         0.023245   
    106. D(C   9,C   7,C   6,C   5)      0.0000         0.023245   
    107. D(H  17,C   9,C   7,O   8)      0.0000         0.023802   
    108. D(C  10,C   9,C   7,O   8)   -180.0000         0.023802   
    109. D(C  10,C   9,C   7,C   6)     -0.0000         0.023802   
    110. D(H  17,C   9,C   7,C   6)    180.0000         0.023802   
    111. D(O  18,C  10,C   4,C   3)     70.7114         0.032541   
    112. D(C   4,C  10,C   9,C   7)     -0.0000         0.030028   
    113. D(O  11,C  10,C   4,C   5)   -180.0000         0.032541   
    114. D(O  11,C  10,C   4,C   3)     -0.0000         0.032541   
    115. D(O  18,C  10,C   4,C   5)   -109.2886         0.032541   
    116. D(C   9,C  10,C   4,C   5)      0.0000         0.032541   
    117. D(C   9,C  10,C   4,C   3)    180.0000         0.032541   
    118. D(O  18,C  10,C   9,H  17)    -58.0982         0.030028   
    119. D(O  18,C  10,C   9,C   7)    121.9018         0.030028   
    120. D(O  11,C  10,C   9,H  17)     -0.0000         0.030028   
    121. D(O  11,C  10,C   9,C   7)    180.0000         0.030028   
    122. D(C   4,C  10,C   9,H  17)    180.0000         0.030028   
    123. D(C  12,O  11,C  10,C   4)     -0.0001         0.026947   
    124. D(O  18,O  11,C  10,C   4)    104.7775         0.026947   
    125. D(C  12,O  11,C  10,O  18)   -104.7776         0.026947   
    126. D(C  12,O  11,C  10,C   9)    179.9999         0.026947   
    127. D(O  18,O  11,C  10,C   9)    -75.2225         0.026947   
    128. D(O  18,C  12,O  11,C  10)    109.8975         0.031471   
    129. D(O  13,C  12,O  11,O  18)     70.1026         0.031471   
    130. D(O  13,C  12,O  11,C  10)   -179.9999         0.031471   
    131. D(C   2,C  12,O  11,O  18)   -109.8974         0.031471   
    132. D(C   2,C  12,O  11,C  10)      0.0001         0.031471   
    133. D(O  18,C  12,C   2,C   3)    -79.9093         0.016990   
    134. D(O  13,C  12,C   2,C   1)     -0.0001         0.016990   
    135. D(O  11,C  12,C   2,C   3)     -0.0001         0.016990   
    136. D(O  11,C  12,C   2,C   1)    179.9999         0.016990   
    137. D(O  18,C  12,C   2,C   1)    100.0907         0.016990   
    138. D(O  13,C  12,C   2,C   3)    179.9999         0.016990   
    139. D(O  18,O  13,C  12,O  11)    -62.6409         0.110128   
    140. D(O  18,O  13,C  12,C   2)    117.3591         0.110128   
    141. D(O  11,O  18,C  10,C   9)    121.0919         0.001500   
    142. D(O  11,O  18,C  10,C   4)   -112.5140         0.001500   
    143. D(H  20,O  18,C  10,O  11)     15.7933         0.001500   
    144. D(H  20,O  18,C  10,C   9)    136.8853         0.001500   
    145. D(H  20,O  18,C  10,C   4)    -96.7207         0.001500   
    146. D(H  19,O  18,C  10,O  11)    112.6058         0.001500   
    147. D(H  19,O  18,C  10,C   9)   -126.3023         0.001500   
    148. D(C  12,O  18,C  10,C   4)    -82.8650         0.001500   
    149. D(H  19,O  18,C  10,C   4)      0.0918         0.001500   
    150. D(O  11,O  18,O  13,C  12)     29.5957         0.001500   
    151. D(C  10,O  18,O  13,C  12)     18.0009         0.001500   
    152. D(H  19,O  18,O  13,C  12)    -94.8374         0.001500   
    153. D(O  13,O  18,C  12,O  11)    126.1137         0.001500   
    154. D(O  13,O  18,C  12,C   2)   -122.6076         0.001500   
    155. D(O  11,O  18,C  12,C   2)    111.2787         0.001500   
    156. D(C  10,O  18,C  12,O  13)   -154.0489         0.001500   
    157. D(C  10,O  18,C  12,O  11)    -27.9351         0.001500   
    158. D(C  10,O  18,C  12,C   2)     83.3435         0.001500   
    159. D(H  20,O  18,C  12,O  13)      8.4172         0.001500   
    160. D(H  20,O  18,C  12,O  11)    134.5309         0.001500   
    161. D(H  20,O  18,C  12,C   2)   -114.1904         0.001500   
    162. D(H  19,O  18,C  12,O  13)     92.5497         0.001500   
    163. D(H  19,O  18,C  12,O  11)   -141.3366         0.001500   
    164. D(H  19,O  18,C  12,C   2)    -30.0579         0.001500   
    165. D(O  13,O  18,O  11,C  12)    -25.7427         0.001500   
    166. D(O  13,O  18,O  11,C  10)   -149.7667         0.001500   
    167. D(C  12,O  18,O  11,C  10)   -124.0240         0.001500   
    168. D(C  10,O  18,O  11,C  12)    124.0240         0.001500   
    169. D(H  20,O  18,O  11,C  12)    -38.5563         0.001500   
    170. D(H  20,O  18,O  11,C  10)   -162.5803         0.001500   
    171. D(H  19,O  18,O  11,C  12)     45.7671         0.001500   
    172. D(O  11,O  18,C  12,O  13)   -126.1137         0.001500   
    173. D(H  19,O  18,O  11,C  10)    -78.2569         0.001500   
    174. D(O  13,O  18,C  10,O  11)     20.3137         0.001500   
    175. D(O  13,O  18,C  10,C   9)    141.4056         0.001500   
    176. D(H  20,O  18,O  13,C  12)   -169.2544         0.001500   
    177. D(O  13,O  18,C  10,C   4)    -92.2003         0.001500   
    178. D(C  12,O  18,C  10,O  11)     29.6490         0.001500   
    179. D(C  12,O  18,C  10,C   9)    150.7409         0.001500   
    -----------------------------------------------------------------

Number of atoms                         .... 21
Number of degrees of freedom            .... 179

         *************************************************************
         *                GEOMETRY OPTIMIZATION CYCLE   1            *
         *************************************************************
---------------------------------
CARTESIAN COORDINATES (ANGSTROEM)
---------------------------------
  N    -0.934059   -4.689148   -0.300813
  C    -0.789539   -3.564798   -0.046780
  C    -0.581237   -2.180989    0.196196
  C     0.000284   -1.411545   -0.735008
  C     0.210207    0.002077   -0.480230
  C     0.807281    0.843489   -1.409606
  C     0.982376    2.201535   -1.103995
  C     0.580879    2.780768    0.116658
  O     0.749466    4.016257    0.373410
  C    -0.018621    1.891869    1.026883
  C    -0.196975    0.538762    0.731304
  O    -0.807834   -0.270072    1.709193
  C    -1.021947   -1.625128    1.494475
  O    -1.554810   -2.328768    2.348498
  H     0.326918   -1.810149   -1.690275
  H     1.145731    0.479864   -2.373731
  H     1.452993    2.848351   -1.845057
  H    -0.351113    2.277625    1.988879
  O     2.748119   -0.951465    5.137911
  H     3.513799   -1.545344    5.137911
  H     1.986875   -1.551022    5.137911

----------------------------
CARTESIAN COORDINATES (A.U.)
----------------------------
  NO LB    ZA    FRAG    MASS        X           Y           Z
   0 N   7.0000    0    14.007   -1.765116   -8.861205   -0.568454
   1 C   6.0000    0    12.011   -1.492013   -6.736492   -0.088402
   2 C   6.0000    0    12.011   -1.098378   -4.121471    0.370756
   3 C   6.0000    0    12.011    0.000537   -2.667433   -1.388963
   4 C   6.0000    0    12.011    0.397233    0.003924   -0.907503
   5 C   6.0000    0    12.011    1.525540    1.593963   -2.663769
   6 C   6.0000    0    12.011    1.856422    4.160299   -2.086247
   7 C   6.0000    0    12.011    1.097703    5.254891    0.220451
   8 O   8.0000    0    15.999    1.416285    7.589625    0.705642
   9 C   6.0000    0    12.011   -0.035189    3.575114    1.940528
  10 C   6.0000    0    12.011   -0.372228    1.018113    1.381964
  11 O   8.0000    0    15.999   -1.526585   -0.510361    3.229906
  12 C   6.0000    0    12.011   -1.931200   -3.071047    2.824148
  13 O   8.0000    0    15.999   -2.938165   -4.400735    4.438018
  14 H   1.0000    0     1.008    0.617786   -3.420685   -3.194156
  15 H   1.0000    0     1.008    2.165118    0.906811   -4.485702
  16 H   1.0000    0     1.008    2.745758    5.382603   -3.486651
  17 H   1.0000    0     1.008   -0.663507    4.304088    3.758436
  18 O   8.0000    0    15.999    5.193191   -1.798008    9.709244
  19 H   1.0000    0     1.008    6.640118   -2.920278    9.709244
  20 H   1.0000    0     1.008    3.754650   -2.931007    9.709244

      -----------------------------------------------------------      
     |                   =====================                   |     
     |                           x T B                           |     
     |                   =====================                   |     
     |                         S. Grimme                         |     
     |          Mulliken Center for Theoretical Chemistry        |     
     |                    University of Bonn                     |     
      -----------------------------------------------------------      

   * xtb version 6.6.1 (8d0f1dd) compiled by 'stahn@M-Bot' on 2023-08-01

   xtb is free software: you can redistribute it and/or modify it under
   the terms of the GNU Lesser General Public License as published by
   the Free Software Foundation, either version 3 of the License, or
   (at your option) any later version.
   
   xtb is distributed in the hope that it will be useful,
   but WITHOUT ANY WARRANTY; without even the implied warranty of
   MERCHANTABILITY or FITNESS FOR A PARTICULAR PURPOSE.  See the
   GNU Lesser General Public License for more details.
   
   Cite this work as:
   * C. Bannwarth, E. Caldeweyher, S. Ehlert, A. Hansen, P. Pracht,
     J. Seibert, S. Spicher, S. Grimme, WIREs Comput. Mol. Sci., 2020, 11,
     e01493. DOI: 10.1002/wcms.1493
   
   for GFN2-xTB:
   * C. Bannwarth, S. Ehlert and S. Grimme., J. Chem. Theory Comput., 2019,
     15, 1652-1671. DOI: 10.1021/acs.jctc.8b01176
   for GFN1-xTB:
   * S. Grimme, C. Bannwarth, P. Shushkov, J. Chem. Theory Comput., 2017,
     13, 1989-2009. DOI: 10.1021/acs.jctc.7b00118
   for GFN0-xTB:
   * P. Pracht, E. Caldeweyher, S. Ehlert, S. Grimme, ChemRxiv, 2019, preprint.
     DOI: 10.26434/chemrxiv.8326202.v1
   for GFN-FF:
   * S. Spicher and S. Grimme, Angew. Chem. Int. Ed., 2020, 59, 15665-15673.
     DOI: 10.1002/anie.202004239
   
   for ALPB and GBSA implicit solvation:
   * S. Ehlert, M. Stahn, S. Spicher, S. Grimme, J. Chem. Theory Comput.,
     2021, 17, 4250-4261. DOI: 10.1021/acs.jctc.1c00471
   
   for DFT-D4:
   * E. Caldeweyher, C. Bannwarth and S. Grimme, J. Chem. Phys., 2017,
     147, 034112. DOI: 10.1063/1.4993215
   * E. Caldeweyher, S. Ehlert, A. Hansen, H. Neugebauer, S. Spicher,
     C. Bannwarth and S. Grimme, J. Chem. Phys., 2019, 150, 154122.
     DOI: 10.1063/1.5090222
   * E. Caldeweyher, J.-M. Mewes, S. Ehlert and S. Grimme, Phys. Chem. Chem. Phys.
     2020, 22, 8499-8512. DOI: 10.1039/D0CP00502A
   
   for sTDA-xTB:
   * S. Grimme and C. Bannwarth, J. Chem. Phys., 2016, 145, 054103.
     DOI: 10.1063/1.4959605
   
   in the mass-spec context:
   * V. Asgeirsson, C. Bauer and S. Grimme, Chem. Sci., 2017, 8, 4879.
     DOI: 10.1039/c7sc00601b
   * J. Koopman and S. Grimme, ACS Omega 2019, 4, 12, 15120-15133.
     DOI: 10.1021/acsomega.9b02011
   
   for metadynamics refer to:
   * S. Grimme, J. Chem. Theory Comput., 2019, 155, 2847-2862
     DOI: 10.1021/acs.jctc.9b00143
   
   for SPH calculations refer to:
   * S. Spicher and S. Grimme, J. Chem. Theory Comput., 2021, 17, 1701-1714
     DOI: 10.1021/acs.jctc.0c01306
   
   with help from (in alphabetical order)
   P. Atkinson, C. Bannwarth, F. Bohle, G. Brandenburg, E. Caldeweyher
   M. Checinski, S. Dohm, S. Ehlert, S. Ehrlich, I. Gerasimov, C. Hölzer
   A. Katbashev, J. Koopman, C. Lavigne, S. Lehtola, F. März, M. Müller,
   F. Musil, H. Neugebauer, J. Pisarek, C. Plett, P. Pracht, F. Pultar,
   J. Seibert, P. Shushkov, S. Spicher, M. Stahn, M. Steiner, T. Strunk,
   J. Stückrath, T. Rose, and J. Unsleber
   
 * started run on 2025/01/14 at 21:08:11.490     

           -------------------------------------------------
          |                Calculation Setup                |
           -------------------------------------------------

          program call               : /home/jang/cal_tmp/10_orca/orca_5_0_4_linux_x86-64_shared_openmpi411/otool_xtb /home/jang/cal_tmp/10_orca/Gen_chromophore/Gen_molecular_pairs_cal/mol_2_9.xyz/input_XTB.xyz --grad -c 0 -u 0 -P 4 --namespace /home/jang/cal_tmp/10_orca/Gen_chromophore/Gen_molecular_pairs_cal/mol_2_9.xyz/input --input /home/jang/cal_tmp/10_orca/Gen_chromophore/Gen_molecular_pairs_cal/mol_2_9.xyz/input_XTB.input.tmp --acc 1.000000
          hostname                   : node02
          calculation namespace      : /home/jang/cal_tmp/10_orca/Gen_chromophore/Gen_molecular_pairs_cal/mol_2_9.xyz/input
          coordinate file            : /home/jang/cal_tmp/10_orca/Gen_chromophore/Gen_molecular_pairs_cal/mol_2_9.xyz/input_XTB.xyz
          omp threads                :                     4

   ID    Z sym.   atoms
    1    7 N      1
    2    6 C      2-8, 10, 11, 13
    3    8 O      9, 12, 14, 19
    4    1 H      15-18, 20, 21

molecular fragmentation (1/2 indicates fragments):
111111111111111111222
# atoms in fragment 1/2:    18     3
 fragment masses (1/2) :      186.14       18.02
CMA distance (Bohr)    :  10.765
constraining FC (au)   :  0.0500

           -------------------------------------------------
          |                 G F N 2 - x T B                 |
           -------------------------------------------------

        Reference                      10.1021/acs.jctc.8b01176
      * Hamiltonian:
        H0-scaling (s, p, d)           1.850000    2.230000    2.230000
        zeta-weighting                 0.500000
      * Dispersion:
        s8                             2.700000
        a1                             0.520000
        a2                             5.000000
        s9                             5.000000
      * Repulsion:
        kExp                           1.500000    1.000000
        rExp                           1.000000
      * Coulomb:
        alpha                          2.000000
        third order                    shell-resolved
        anisotropic                    true
        a3                             3.000000
        a5                             4.000000
        cn-shift                       1.200000
        cn-exp                         4.000000
        max-rad                        5.000000


          ...................................................
          :                      SETUP                      :
          :.................................................:
          :  # basis functions                  66          :
          :  # atomic orbitals                  66          :
          :  # shells                           36          :
          :  # electrons                        75          :
          :  max. iterations                   250          :
          :  Hamiltonian                  GFN2-xTB          :
          :  restarted?                      false          :
          :  GBSA solvation                  false          :
          :  PC potential                    false          :
          :  electronic temp.          300.0000000     K    :
          :  accuracy                    1.0000000          :
          :  -> integral cutoff          0.2500000E+02      :
          :  -> integral neglect         0.1000000E-07      :
          :  -> SCF convergence          0.1000000E-05 Eh   :
          :  -> wf. convergence          0.1000000E-03 e    :
          :  Broyden damping             0.4000000          :
          ...................................................

 iter      E             dE          RMSdq      gap      omega  full diag
   1    -43.9724249 -0.439724E+02  0.629E+00    2.72       0.0  T
   2    -43.9334214  0.390035E-01  0.380E+00    1.57       1.0  T
   3    -43.9224020  0.110194E-01  0.331E+00    2.80       1.0  T
   4    -44.0640090 -0.141607E+00  0.154E+00    2.06       1.0  T
   5    -44.0932399 -0.292309E-01  0.750E-01    2.33       1.0  T
   6    -44.0951726 -0.193271E-02  0.592E-01    2.22       1.0  T
   7    -44.0957074 -0.534838E-03  0.311E-01    2.23       1.0  T
   8    -44.0964566 -0.749183E-03  0.792E-02    2.20       1.0  T
   9    -44.0965637 -0.107062E-03  0.337E-02    2.22       1.0  T
  10    -44.0965727 -0.900199E-05  0.159E-02    2.21       1.4  T
  11    -44.0965762 -0.352254E-05  0.404E-03    2.21       5.4  T
  12    -44.0965762 -0.448205E-07  0.231E-03    2.21       9.4  T
  13    -44.0965763 -0.247437E-07  0.114E-03    2.21      19.1  T
  14    -44.0965763 -0.461816E-08  0.470E-04    2.21      46.4  T
  15    -44.0965763 -0.276280E-08  0.193E-04    2.21     112.8  T

   *** convergence criteria satisfied after 15 iterations ***

         #    Occupation            Energy/Eh            Energy/eV
      -------------------------------------------------------------
         1        2.0000           -0.7837331             -21.3265
       ...           ...                  ...                  ...
        32        2.0000           -0.4768972             -12.9770
        33        2.0000           -0.4644693             -12.6389
        34        2.0000           -0.4564913             -12.4218
        35        2.0000           -0.4511465             -12.2763
        36        2.0000           -0.4492536             -12.2248
        37        1.9933           -0.4311318             -11.7317
        38        1.0067           -0.4216462             -11.4736 (HOMO)
        39                         -0.3404155              -9.2632 (LUMO)
        40                         -0.2958071              -8.0493
        41                         -0.2730003              -7.4287
        42                         -0.2520187              -6.8578
        43                         -0.2437911              -6.6339
       ...                                ...                  ...
        66                          1.0530537              28.6550
      -------------------------------------------------------------
                  HL-Gap            0.0812307 Eh            2.2104 eV
             Fermi-level           -0.4037099 Eh          -10.9855 eV

 SCC (total)                   0 d,  0 h,  0 min,  0.051 sec
 SCC setup                      ...        0 min,  0.001 sec (  1.073%)
 Dispersion                     ...        0 min,  0.001 sec (  2.283%)
 classical contributions        ...        0 min,  0.000 sec (  0.253%)
 integral evaluation            ...        0 min,  0.002 sec (  4.616%)
 iterations                     ...        0 min,  0.042 sec ( 82.129%)
 molecular gradient             ...        0 min,  0.004 sec (  8.324%)
 printout                       ...        0 min,  0.001 sec (  1.130%)

         :::::::::::::::::::::::::::::::::::::::::::::::::::::
         ::                     SUMMARY                     ::
         :::::::::::::::::::::::::::::::::::::::::::::::::::::
         :: total energy             -43.529793555105 Eh    ::
         :: gradient norm              0.152946561396 Eh/a0 ::
         :: HOMO-LUMO gap              2.210399680796 eV    ::
         ::.................................................::
         :: SCC energy               -44.096576269480 Eh    ::
         :: -> isotropic ES            0.104872247769 Eh    ::
         :: -> anisotropic ES          0.001905338723 Eh    ::
         :: -> anisotropic XC          0.022661240022 Eh    ::
         :: -> dispersion             -0.018794201596 Eh    ::
         :: repulsion energy           0.566726999015 Eh    ::
         :: add. restraining           0.000000000000 Eh    ::
         :: total charge               0.000000000041 e     ::
         :::::::::::::::::::::::::::::::::::::::::::::::::::::


Property printout bound to 'properties.out'

           -------------------------------------------------
          | TOTAL ENERGY              -43.529793555105 Eh   |
          | GRADIENT NORM               0.152946561396 Eh/α |
          | HOMO-LUMO GAP               2.210399680796 eV   |
           -------------------------------------------------

------------------------------------------------------------------------
 * finished run on 2025/01/14 at 21:08:14.960     
------------------------------------------------------------------------
 total:
 * wall-time:     0 d,  0 h,  0 min,  3.469 sec
 *  cpu-time:     0 d,  0 h,  0 min,  2.308 sec
 * ratio c/w:     0.665 speedup
 SCF:
 * wall-time:     0 d,  0 h,  0 min,  0.051 sec
 *  cpu-time:     0 d,  0 h,  0 min,  0.200 sec
 * ratio c/w:     3.894 speedup


-------------------------   --------------------
FINAL SINGLE POINT ENERGY       -43.529793555100
-------------------------   --------------------

------------------------------------------------------------------------------
                         ORCA GEOMETRY RELAXATION STEP
------------------------------------------------------------------------------

Reading the OPT-File                    .... done
Getting information on internals        .... done
Copying old internal coords+grads       .... done
Making the new internal coordinates     .... (new redundants).... done
Validating the new internal coordinates .... (new redundants).... done
Calculating the B-matrix                .... done
Calculating the G,G- and P matrices     .... done
Transforming gradient to internals      .... done
Projecting the internal gradient        .... done
Number of atoms                         ....  21
Number of internal coordinates          .... 179
Current Energy                          ....   -43.529793555 Eh
Current gradient norm                   ....     0.152946561 Eh/bohr
Maximum allowed component of the step   ....  0.300
Current trust radius                    ....  0.300
Evaluating the initial hessian          ....  (Almloef) done
Projecting the Hessian                  .... done
Forming the augmented Hessian           .... done
Diagonalizing the augmented Hessian     .... done
Last element of RFO vector              ....  0.980515525
Lowest eigenvalues of augmented Hessian:
 -0.017638852  0.000152321  0.002587598  0.005176154  0.014451531
Length of the computed step             ....  0.200345228
The final length of the internal step   ....  0.200345228
Converting the step to cartesian space:
 Initial RMS(Int)=    0.0149745054
Transforming coordinates:
 Iter   0:  RMS(Cart)=    0.0334168969 RMS(Int)=    1.4846009442
 Iter   1:  RMS(Cart)=    0.0002842992 RMS(Int)=    0.0001826444
 Iter   2:  RMS(Cart)=    0.0000053447 RMS(Int)=    0.0000030980
 Iter   3:  RMS(Cart)=    0.0000013511 RMS(Int)=    0.0000007867
 Iter   4:  RMS(Cart)=    0.0000006668 RMS(Int)=    0.0000003868
 Iter   5:  RMS(Cart)=    0.0000003285 RMS(Int)=    0.0000001905
 Iter   6:  RMS(Cart)=    0.0000001618 RMS(Int)=    0.0000000938
 Iter   7:  RMS(Cart)=    0.0000000797 RMS(Int)=    0.0000000462
done
Storing new coordinates                 .... done

                                .--------------------.
          ----------------------|Geometry convergence|-------------------------
          Item                value                   Tolerance       Converged
          ---------------------------------------------------------------------
          RMS gradient        0.0079528232            0.0001000000      NO
          MAX gradient        0.0403012421            0.0003000000      NO
          RMS step            0.0149745054            0.0020000000      NO
          MAX step            0.0571101606            0.0040000000      NO
          ........................................................
          Max(Bonds)      0.0302      Max(Angles)    1.16
          Max(Dihed)        1.69      Max(Improp)    0.00
          ---------------------------------------------------------------------

The optimization has not yet converged - more geometry cycles are needed


    ---------------------------------------------------------------------------
                         Redundant Internal Coordinates
                            (Angstroem and degrees)

        Definition                    Value    dE/dq     Step     New-Value
    ----------------------------------------------------------------------------
     1. B(C   1,N   0)                1.1617  0.039311 -0.0159    1.1459   
     2. B(C   2,C   1)                1.4203  0.006621 -0.0061    1.4143   
     3. B(C   3,C   2)                1.3407 -0.013817  0.0127    1.3534   
     4. B(C   4,C   3)                1.4517  0.025416 -0.0215    1.4301   
     5. B(C   5,C   4)                1.3886 -0.018957  0.0153    1.4039   
     6. B(C   6,C   5)                1.4030  0.035428 -0.0302    1.3728   
     7. B(C   7,C   6)                1.4095 -0.027533  0.0249    1.4344   
     8. B(O   8,C   7)                1.2731  0.036967 -0.0223    1.2508   
     9. B(C   9,C   7)                1.4064 -0.026954  0.0238    1.4302   
    10. B(C  10,C   9)                1.3965  0.022685 -0.0209    1.3755   
    11. B(C  10,C   4)                1.3862 -0.024687  0.0193    1.4055   
    12. B(O  11,C  10)                1.4084  0.016987 -0.0277    1.3807   
    13. B(C  12,O  11)                1.3886  0.016407 -0.0232    1.3654   
    14. B(C  12,C   2)                1.4794  0.002424 -0.0023    1.4771   
    15. B(O  13,C  12)                1.2282  0.040301 -0.0225    1.2057   
    16. B(H  14,C   3)                1.0854  0.002741 -0.0038    1.0816   
    17. B(H  15,C   5)                1.0846  0.004273 -0.0059    1.0787   
    18. B(H  16,C   6)                1.0904  0.005772 -0.0081    1.0823   
    19. B(H  17,C   9)                1.0885  0.005519 -0.0071    1.0814   
    20. B(O  18,O  13)                5.3097  0.007245 -0.0165    5.2932   
    21. B(O  18,C  12)                5.2860  0.000578 -0.0015    5.2845   
    22. B(O  18,O  11)                4.9865 -0.004528  0.0079    4.9944   
    23. B(O  18,C  10)                5.5057  0.000248 -0.0017    5.5040   
    24. B(O  18,H  17)                5.4725 -0.001305 -0.0038    5.4687   
    25. B(H  19,O  18)                0.9690  0.007166 -0.0073    0.9617   
    26. B(H  20,O  13)                4.5748 -0.000956 -0.0066    4.5682   
    27. B(H  20,C  12)                4.7258 -0.001884  0.0045    4.7303   
    28. B(H  20,O  11)                4.6051 -0.004145  0.0078    4.6129   
    29. B(H  20,C  10)                5.3436  0.004253 -0.0068    5.3369   
    30. B(H  20,C   2)                5.6047 -0.000212  0.0027    5.6074   
    31. B(H  20,O  18)                0.9690  0.003618 -0.0068    0.9622   
    32. B(H  20,H  17)                5.4810  0.005283 -0.0203    5.4607   
    33. L(N   0,C   1,C   2,C   3, 2) 180.00 -0.000058    0.01    180.01   
    34. L(N   0,C   1,C   2,C   3, 1) 176.97 -0.000815    0.09    177.06   
    35. A(C   1,C   2,C  12)          118.20  0.004434   -0.41    117.79   
    36. A(C   1,C   2,C   3)          120.26 -0.001556    0.38    120.64   
    37. A(C   3,C   2,C  12)          121.54 -0.002878    0.03    121.57   
    38. A(C   2,C   3,H  14)          122.08 -0.001754    0.12    122.20   
    39. A(C   4,C   3,H  14)          117.94 -0.003104    0.35    118.29   
    40. A(C   2,C   3,C   4)          119.98  0.004858   -0.47    119.51   
    41. A(C   3,C   4,C  10)          119.20  0.002136   -0.62    118.59   
    42. A(C   5,C   4,C  10)          118.47 -0.005082    0.62    119.09   
    43. A(C   3,C   4,C   5)          122.33  0.002946   -0.00    122.32   
    44. A(C   4,C   5,H  15)          121.73  0.004443   -0.59    121.15   
    45. A(C   6,C   5,H  15)          118.63 -0.000903    0.24    118.87   
    46. A(C   4,C   5,C   6)          119.63 -0.003540    0.35    119.98   
    47. A(C   5,C   6,H  16)          118.69 -0.004066    0.56    119.25   
    48. A(C   7,C   6,H  16)          117.89 -0.003163    0.42    118.31   
    49. A(C   5,C   6,C   7)          123.43  0.007228   -0.98    122.44   
    50. A(O   8,C   7,C   9)          122.63  0.004788   -0.61    122.03   
    51. A(C   6,C   7,O   8)          122.39  0.004337   -0.55    121.84   
    52. A(C   6,C   7,C   9)          114.97 -0.009124    1.16    116.13   
    53. A(C  10,C   9,H  17)          119.44 -0.004869    0.29    119.73   
    54. A(C   7,C   9,H  17)          118.57 -0.002426    0.64    119.21   
    55. A(C   7,C   9,C  10)          122.00  0.007295   -0.94    121.06   
    56. A(C   4,C  10,O  11)          120.79 -0.002455    0.61    121.40   
    57. A(C   4,C  10,C   9)          121.51  0.003223   -0.21    121.30   
    58. A(C   9,C  10,O  18)           91.41 -0.000761   -0.06     91.34   
    59. A(O  11,C  10,O  18)           61.37 -0.000225    0.11     61.48   
    60. A(C   4,C  10,O  18)          115.95 -0.001117    0.15    116.10   
    61. A(C   9,C  10,O  11)          117.70 -0.000767   -0.40    117.30   
    62. A(C  10,O  11,C  12)          121.33 -0.001104    0.40    121.73   
    63. A(C  12,O  11,O  18)           94.76 -0.000262   -0.05     94.70   
    64. A(C  10,O  11,O  18)          104.28 -0.001500    0.18    104.46   
    65. A(O  11,C  12,O  13)          121.23  0.000388   -1.03    120.20   
    66. A(O  13,C  12,O  18)           84.44  0.000541   -0.56     83.88   
    67. A(O  11,C  12,O  18)           70.07 -0.001424    0.31     70.38   
    68. A(C   2,C  12,O  18)          116.12 -0.000403   -0.05    116.07   
    69. A(C   2,C  12,O  13)          121.61  0.000168    0.98    122.59   
    70. A(C   2,C  12,O  11)          117.16 -0.000556    0.05    117.20   
    71. A(C  12,O  13,O  18)           82.25 -0.004491    0.78     83.03   
    72. A(H  19,O  18,H  20)          103.98 -0.001681    0.83    104.80   
    73. A(C  12,O  18,O  13)           13.31  0.003950   -0.22     13.09   
    74. A(O  11,O  18,O  13)           25.35  0.005033   -0.53     24.82   
    75. A(C  10,O  18,O  13)           38.39  0.006634   -0.72     37.67   
    76. A(O  13,O  18,H  20)           37.14 -0.004333    0.41     37.55   
    77. A(O  13,O  18,H  19)          118.78 -0.003250    0.64    119.42   
    78. A(O  11,O  18,C  12)           15.18  0.001686   -0.25     14.92   
    79. A(C  10,O  18,C  12)           26.01  0.002783   -0.43     25.59   
    80. A(C  12,O  18,H  20)           50.27 -0.000387    0.18     50.45   
    81. A(C  12,O  18,H  19)          119.04 -0.002565    0.32    119.36   
    82. A(C  10,O  18,O  11)           14.35  0.001725   -0.30     14.06   
    83. A(O  11,O  18,H  20)           61.60  0.000806   -0.13     61.47   
    84. A(O  11,O  18,H  19)          130.33 -0.001101    0.05    130.39   
    85. A(C  10,O  18,H  20)           75.36  0.002353   -0.33     75.02   
    86. A(C  10,O  18,H  19)          126.06 -0.001855    0.18    126.23   
    87. D(C   4,C   3,C   2,C  12)     -0.00  0.001218   -0.22     -0.22   
    88. D(C   4,C   3,C   2,C   1)   -180.00  0.001779   -0.20   -180.20   
    89. D(H  14,C   3,C   2,C   1)      0.00  0.000297    0.04      0.04   
    90. D(H  14,C   3,C   2,C  12)   -180.00 -0.000263    0.02   -179.98   
    91. D(C  10,C   4,C   3,H  14)   -180.00  0.000141    0.00   -180.00   
    92. D(C  10,C   4,C   3,C   2)      0.00 -0.001279    0.24      0.24   
    93. D(C   5,C   4,C   3,C   2)   -180.00 -0.001518    0.33   -179.67   
    94. D(C   5,C   4,C   3,H  14)     -0.00 -0.000097    0.10      0.10   
    95. D(H  15,C   5,C   4,C   3)      0.00  0.000390   -0.11     -0.11   
    96. D(C   6,C   5,C   4,C   3)   -180.00  0.000649   -0.18   -180.18   
    97. D(H  15,C   5,C   4,C  10)   -180.00  0.000153   -0.02   -180.02   
    98. D(C   6,C   5,C   4,C  10)      0.00  0.000412   -0.09     -0.09   
    99. D(H  16,C   6,C   5,C   4)    180.00 -0.000194    0.07    180.07   
   100. D(C   7,C   6,C   5,H  15)    180.00  0.000486   -0.12    179.88   
   101. D(C   7,C   6,C   5,C   4)     -0.00  0.000235   -0.05     -0.05   
   102. D(H  16,C   6,C   5,H  15)     -0.00  0.000056    0.00      0.00   
   103. D(O   8,C   7,C   6,H  16)      0.00 -0.000228    0.13      0.13   
   104. D(C   9,C   7,C   6,H  16)   -180.00  0.000065   -0.02   -180.02   
   105. D(O   8,C   7,C   6,C   5)   -180.00 -0.000654    0.25   -179.75   
   106. D(C   9,C   7,C   6,C   5)      0.00 -0.000362    0.10      0.10   
   107. D(H  17,C   9,C   7,O   8)      0.00 -0.000674    0.05      0.05   
   108. D(C  10,C   9,C   7,O   8)   -180.00  0.000143   -0.16   -180.16   
   109. D(C  10,C   9,C   7,C   6)     -0.00 -0.000151   -0.01     -0.01   
   110. D(H  17,C   9,C   7,C   6)    180.00 -0.000967    0.20    180.20   
   111. D(O  18,C  10,C   4,C   3)     70.71 -0.001537    0.39     71.10   
   112. D(C   4,C  10,C   9,C   7)     -0.00  0.000806   -0.13     -0.13   
   113. D(O  11,C  10,C   4,C   5)   -180.00  0.000231   -0.10   -180.10   
   114. D(O  11,C  10,C   4,C   3)     -0.00  0.000002   -0.01     -0.01   
   115. D(O  18,C  10,C   4,C   5)   -109.29 -0.001308    0.30   -108.99   
   116. D(C   9,C  10,C   4,C   5)      0.00 -0.000921    0.18      0.18   
   117. D(C   9,C  10,C   4,C   3)    180.00 -0.001151    0.27    180.27   
   118. D(O  18,C  10,C   9,H  17)    -58.10  0.001003   -0.29    -58.39   
   119. D(O  18,C  10,C   9,C   7)    121.90  0.000180   -0.07    121.83   
   120. D(O  11,C  10,C   9,H  17)     -0.00  0.000511   -0.08     -0.08   
   121. D(O  11,C  10,C   9,C   7)    180.00 -0.000313    0.14    180.14   
   122. D(C   4,C  10,C   9,H  17)    180.00  0.001629   -0.34    179.66   
   123. D(C  12,O  11,C  10,C   4)     -0.00  0.001356   -0.24     -0.24   
   124. D(O  18,O  11,C  10,C   4)    104.78 -0.000483   -0.01    104.77   
   125. D(C  12,O  11,C  10,O  18)   -104.78  0.001839   -0.23   -105.00   
   126. D(C  12,O  11,C  10,C   9)    180.00  0.002466   -0.50    179.50   
   127. D(O  18,O  11,C  10,C   9)    -75.22  0.000627   -0.28    -75.50   
   128. D(O  18,C  12,O  11,C  10)    109.90 -0.002335    0.31    110.20   
   129. D(O  13,C  12,O  11,O  18)     70.10 -0.000627    0.12     70.22   
   130. D(O  13,C  12,O  11,C  10)   -180.00 -0.002962    0.43   -179.57   
   131. D(C   2,C  12,O  11,O  18)   -109.90  0.000939   -0.06   -109.95   
   132. D(C   2,C  12,O  11,C  10)      0.00 -0.001396    0.25      0.25   
   133. D(O  18,C  12,C   2,C   3)    -79.91  0.002204   -0.38    -80.29   
   134. D(O  13,C  12,C   2,C   1)     -0.00  0.001124   -0.21     -0.21   
   135. D(O  11,C  12,C   2,C   3)     -0.00  0.000100   -0.02     -0.02   
   136. D(O  11,C  12,C   2,C   1)    180.00 -0.000449   -0.04    179.96   
   137. D(O  18,C  12,C   2,C   1)    100.09  0.001655   -0.40     99.69   
   138. D(O  13,C  12,C   2,C   3)    180.00  0.001673   -0.19    179.81   
   139. D(O  18,O  13,C  12,O  11)    -62.64  0.001539   -0.41    -63.05   
   140. D(O  18,O  13,C  12,C   2)    117.36 -0.000098   -0.22    117.14   
   141. D(O  11,O  18,C  10,C   9)    121.09 -0.000363   -0.47    120.62   
   142. D(O  11,O  18,C  10,C   4)   -112.51  0.002526   -0.70   -113.21   
   143. D(H  20,O  18,C  10,O  11)     15.79  0.001430   -0.99     14.80   
   144. D(H  20,O  18,C  10,C   9)    136.89  0.001067   -1.46    135.42   
   145. D(H  20,O  18,C  10,C   4)    -96.72  0.003956   -1.69    -98.41   
   146. D(H  19,O  18,C  10,O  11)    112.61  0.001309   -0.23    112.38   
   147. D(H  19,O  18,C  10,C   9)   -126.30  0.000946   -0.70   -127.00   
   148. D(C  12,O  18,C  10,C   4)    -82.87  0.003466   -0.91    -83.77   
   149. D(H  19,O  18,C  10,C   4)      0.09  0.003835   -0.93     -0.84   
   150. D(O  11,O  18,O  13,C  12)     29.60 -0.002795    0.51     30.11   
   151. D(C  10,O  18,O  13,C  12)     18.00 -0.002109    0.88     18.88   
   152. D(H  19,O  18,O  13,C  12)    -94.84 -0.003245    1.37    -93.46   
   153. D(O  13,O  18,C  12,O  11)    126.11  0.000706   -0.99    125.13   
   154. D(O  13,O  18,C  12,C   2)   -122.61 -0.000392   -0.80   -123.41   
   155. D(O  11,O  18,C  12,C   2)    111.28 -0.001098    0.18    111.46   
   156. D(C  10,O  18,C  12,O  13)   -154.05 -0.001859    1.30   -152.75   
   157. D(C  10,O  18,C  12,O  11)    -27.94 -0.001153    0.31    -27.62   
   158. D(C  10,O  18,C  12,C   2)     83.34 -0.002251    0.49     83.84   
   159. D(H  20,O  18,C  12,O  13)      8.42 -0.001526    0.37      8.79   
   160. D(H  20,O  18,C  12,O  11)    134.53 -0.000820   -0.62    133.91   
   161. D(H  20,O  18,C  12,C   2)   -114.19 -0.001918   -0.43   -114.62   
   162. D(H  19,O  18,C  12,O  13)     92.55 -0.001924    1.40     93.95   
   163. D(H  19,O  18,C  12,O  11)   -141.34 -0.001218    0.41   -140.92   
   164. D(H  19,O  18,C  12,C   2)    -30.06 -0.002316    0.60    -29.46   
   165. D(O  13,O  18,O  11,C  12)    -25.74 -0.002680   -0.44    -26.18   
   166. D(O  13,O  18,O  11,C  10)   -149.77 -0.000998   -0.89   -150.66   
   167. D(C  12,O  18,O  11,C  10)   -124.02  0.001682   -0.45   -124.48   
   168. D(C  10,O  18,O  11,C  12)    124.02 -0.001682    0.45    124.48   
   169. D(H  20,O  18,O  11,C  12)    -38.56 -0.000039   -0.66    -39.21   
   170. D(H  20,O  18,O  11,C  10)   -162.58  0.001643   -1.11   -163.69   
   171. D(H  19,O  18,O  11,C  12)     45.77 -0.001061    0.40     46.16   
   172. D(O  11,O  18,C  12,O  13)   -126.11 -0.000706    0.99   -125.13   
   173. D(H  19,O  18,O  11,C  10)    -78.26  0.000621   -0.06    -78.31   
   174. D(O  13,O  18,C  10,O  11)     20.31  0.000199   -0.65     19.67   
   175. D(O  13,O  18,C  10,C   9)    141.41 -0.000164   -1.11    140.29   
   176. D(H  20,O  18,O  13,C  12)   -169.25 -0.000932    0.40   -168.85   
   177. D(O  13,O  18,C  10,C   4)    -92.20  0.002725   -1.34    -93.54   
   178. D(C  12,O  18,C  10,O  11)     29.65  0.000939   -0.21     29.44   
   179. D(C  12,O  18,C  10,C   9)    150.74  0.000577   -0.68    150.06   
    ----------------------------------------------------------------------------

         *************************************************************
         *                GEOMETRY OPTIMIZATION CYCLE   2            *
         *************************************************************
---------------------------------
CARTESIAN COORDINATES (ANGSTROEM)
---------------------------------
  N    -0.941753   -4.652414   -0.272483
  C    -0.791329   -3.541960   -0.033189
  C    -0.575082   -2.163389    0.196831
  C     0.015484   -1.391288   -0.744840
  C     0.218486    0.001018   -0.488595
  C     0.818571    0.856979   -1.425727
  C     0.986584    2.187123   -1.130916
  C     0.567956    2.757518    0.116836
  O     0.722401    3.972230    0.372029
  C    -0.038272    1.857741    1.048685
  C    -0.201237    0.525899    0.745914
  O    -0.798505   -0.272179    1.701275
  C    -1.013769   -1.604055    1.491680
  O    -1.544559   -2.273859    2.342135
  H     0.340352   -1.790018   -1.696364
  H     1.153218    0.489368   -2.383055
  H     1.449561    2.836571   -1.862556
  H    -0.375565    2.235650    2.004085
  O     2.753340   -0.968324    5.142685
  H     3.513621   -1.557283    5.143251
  H     1.989289   -1.553161    5.146051

----------------------------
CARTESIAN COORDINATES (A.U.)
----------------------------
  NO LB    ZA    FRAG    MASS        X           Y           Z
   0 N   7.0000    0    14.007   -1.779656   -8.791788   -0.514918
   1 C   6.0000    0    12.011   -1.495395   -6.693335   -0.062718
   2 C   6.0000    0    12.011   -1.086748   -4.088213    0.371956
   3 C   6.0000    0    12.011    0.029261   -2.629153   -1.407545
   4 C   6.0000    0    12.011    0.412878    0.001924   -0.923311
   5 C   6.0000    0    12.011    1.546874    1.619456   -2.694234
   6 C   6.0000    0    12.011    1.864373    4.133063   -2.137122
   7 C   6.0000    0    12.011    1.073282    5.210953    0.220789
   8 O   8.0000    0    15.999    1.365139    7.506428    0.703034
   9 C   6.0000    0    12.011   -0.072323    3.510622    1.981727
  10 C   6.0000    0    12.011   -0.380283    0.993805    1.409573
  11 O   8.0000    0    15.999   -1.508955   -0.514343    3.214944
  12 C   6.0000    0    12.011   -1.915745   -3.031225    2.818868
  13 O   8.0000    0    15.999   -2.918793   -4.296970    4.425993
  14 H   1.0000    0     1.008    0.643171   -3.382643   -3.205663
  15 H   1.0000    0     1.008    2.179267    0.924772   -4.503321
  16 H   1.0000    0     1.008    2.739274    5.360343   -3.519721
  17 H   1.0000    0     1.008   -0.709715    4.224766    3.787172
  18 O   8.0000    0    15.999    5.203058   -1.829868    9.718266
  19 H   1.0000    0     1.008    6.639782   -2.942838    9.719335
  20 H   1.0000    0     1.008    3.759211   -2.935049    9.724627

      -----------------------------------------------------------      
     |                   =====================                   |     
     |                           x T B                           |     
     |                   =====================                   |     
     |                         S. Grimme                         |     
     |          Mulliken Center for Theoretical Chemistry        |     
     |                    University of Bonn                     |     
      -----------------------------------------------------------      

   * xtb version 6.6.1 (8d0f1dd) compiled by 'stahn@M-Bot' on 2023-08-01

   xtb is free software: you can redistribute it and/or modify it under
   the terms of the GNU Lesser General Public License as published by
   the Free Software Foundation, either version 3 of the License, or
   (at your option) any later version.
   
   xtb is distributed in the hope that it will be useful,
   but WITHOUT ANY WARRANTY; without even the implied warranty of
   MERCHANTABILITY or FITNESS FOR A PARTICULAR PURPOSE.  See the
   GNU Lesser General Public License for more details.
   
   Cite this work as:
   * C. Bannwarth, E. Caldeweyher, S. Ehlert, A. Hansen, P. Pracht,
     J. Seibert, S. Spicher, S. Grimme, WIREs Comput. Mol. Sci., 2020, 11,
     e01493. DOI: 10.1002/wcms.1493
   
   for GFN2-xTB:
   * C. Bannwarth, S. Ehlert and S. Grimme., J. Chem. Theory Comput., 2019,
     15, 1652-1671. DOI: 10.1021/acs.jctc.8b01176
   for GFN1-xTB:
   * S. Grimme, C. Bannwarth, P. Shushkov, J. Chem. Theory Comput., 2017,
     13, 1989-2009. DOI: 10.1021/acs.jctc.7b00118
   for GFN0-xTB:
   * P. Pracht, E. Caldeweyher, S. Ehlert, S. Grimme, ChemRxiv, 2019, preprint.
     DOI: 10.26434/chemrxiv.8326202.v1
   for GFN-FF:
   * S. Spicher and S. Grimme, Angew. Chem. Int. Ed., 2020, 59, 15665-15673.
     DOI: 10.1002/anie.202004239
   
   for ALPB and GBSA implicit solvation:
   * S. Ehlert, M. Stahn, S. Spicher, S. Grimme, J. Chem. Theory Comput.,
     2021, 17, 4250-4261. DOI: 10.1021/acs.jctc.1c00471
   
   for DFT-D4:
   * E. Caldeweyher, C. Bannwarth and S. Grimme, J. Chem. Phys., 2017,
     147, 034112. DOI: 10.1063/1.4993215
   * E. Caldeweyher, S. Ehlert, A. Hansen, H. Neugebauer, S. Spicher,
     C. Bannwarth and S. Grimme, J. Chem. Phys., 2019, 150, 154122.
     DOI: 10.1063/1.5090222
   * E. Caldeweyher, J.-M. Mewes, S. Ehlert and S. Grimme, Phys. Chem. Chem. Phys.
     2020, 22, 8499-8512. DOI: 10.1039/D0CP00502A
   
   for sTDA-xTB:
   * S. Grimme and C. Bannwarth, J. Chem. Phys., 2016, 145, 054103.
     DOI: 10.1063/1.4959605
   
   in the mass-spec context:
   * V. Asgeirsson, C. Bauer and S. Grimme, Chem. Sci., 2017, 8, 4879.
     DOI: 10.1039/c7sc00601b
   * J. Koopman and S. Grimme, ACS Omega 2019, 4, 12, 15120-15133.
     DOI: 10.1021/acsomega.9b02011
   
   for metadynamics refer to:
   * S. Grimme, J. Chem. Theory Comput., 2019, 155, 2847-2862
     DOI: 10.1021/acs.jctc.9b00143
   
   for SPH calculations refer to:
   * S. Spicher and S. Grimme, J. Chem. Theory Comput., 2021, 17, 1701-1714
     DOI: 10.1021/acs.jctc.0c01306
   
   with help from (in alphabetical order)
   P. Atkinson, C. Bannwarth, F. Bohle, G. Brandenburg, E. Caldeweyher
   M. Checinski, S. Dohm, S. Ehlert, S. Ehrlich, I. Gerasimov, C. Hölzer
   A. Katbashev, J. Koopman, C. Lavigne, S. Lehtola, F. März, M. Müller,
   F. Musil, H. Neugebauer, J. Pisarek, C. Plett, P. Pracht, F. Pultar,
   J. Seibert, P. Shushkov, S. Spicher, M. Stahn, M. Steiner, T. Strunk,
   J. Stückrath, T. Rose, and J. Unsleber
   
 * started run on 2025/01/14 at 21:08:34.724     

           -------------------------------------------------
          |                Calculation Setup                |
           -------------------------------------------------

          program call               : /home/jang/cal_tmp/10_orca/orca_5_0_4_linux_x86-64_shared_openmpi411/otool_xtb /home/jang/cal_tmp/10_orca/Gen_chromophore/Gen_molecular_pairs_cal/mol_2_9.xyz/input_XTB.xyz --grad -c 0 -u 0 -P 4 --namespace /home/jang/cal_tmp/10_orca/Gen_chromophore/Gen_molecular_pairs_cal/mol_2_9.xyz/input --input /home/jang/cal_tmp/10_orca/Gen_chromophore/Gen_molecular_pairs_cal/mol_2_9.xyz/input_XTB.input.tmp --acc 1.000000
          hostname                   : node02
          calculation namespace      : /home/jang/cal_tmp/10_orca/Gen_chromophore/Gen_molecular_pairs_cal/mol_2_9.xyz/input
          coordinate file            : /home/jang/cal_tmp/10_orca/Gen_chromophore/Gen_molecular_pairs_cal/mol_2_9.xyz/input_XTB.xyz
          omp threads                :                     4

   ID    Z sym.   atoms
    1    7 N      1
    2    6 C      2-8, 10, 11, 13
    3    8 O      9, 12, 14, 19
    4    1 H      15-18, 20, 21

molecular fragmentation (1/2 indicates fragments):
111111111111111111222
# atoms in fragment 1/2:    18     3
 fragment masses (1/2) :      186.14       18.02
CMA distance (Bohr)    :  10.783
constraining FC (au)   :  0.0500

           -------------------------------------------------
          |                 G F N 2 - x T B                 |
           -------------------------------------------------

        Reference                      10.1021/acs.jctc.8b01176
      * Hamiltonian:
        H0-scaling (s, p, d)           1.850000    2.230000    2.230000
        zeta-weighting                 0.500000
      * Dispersion:
        s8                             2.700000
        a1                             0.520000
        a2                             5.000000
        s9                             5.000000
      * Repulsion:
        kExp                           1.500000    1.000000
        rExp                           1.000000
      * Coulomb:
        alpha                          2.000000
        third order                    shell-resolved
        anisotropic                    true
        a3                             3.000000
        a5                             4.000000
        cn-shift                       1.200000
        cn-exp                         4.000000
        max-rad                        5.000000

q/qsh data taken from xtbrestart
CAMM data taken from xtbrestart

          ...................................................
          :                      SETUP                      :
          :.................................................:
          :  # basis functions                  66          :
          :  # atomic orbitals                  66          :
          :  # shells                           36          :
          :  # electrons                        75          :
          :  max. iterations                   250          :
          :  Hamiltonian                  GFN2-xTB          :
          :  restarted?                       true          :
          :  GBSA solvation                  false          :
          :  PC potential                    false          :
          :  electronic temp.          300.0000000     K    :
          :  accuracy                    1.0000000          :
          :  -> integral cutoff          0.2500000E+02      :
          :  -> integral neglect         0.1000000E-07      :
          :  -> SCF convergence          0.1000000E-05 Eh   :
          :  -> wf. convergence          0.1000000E-03 e    :
          :  Broyden damping             0.4000000          :
          ...................................................

 iter      E             dE          RMSdq      gap      omega  full diag
   1    -44.1349124 -0.441349E+02  0.269E-01    2.22       0.0  T
   2    -44.1351934 -0.281030E-03  0.169E-01    2.22       1.0  T
   3    -44.1352402 -0.467433E-04  0.952E-02    2.22       1.0  T
   4    -44.1352600 -0.198429E-04  0.290E-02    2.22       1.0  T
   5    -44.1352732 -0.132129E-04  0.103E-02    2.22       2.1  T
   6    -44.1352750 -0.175402E-05  0.446E-03    2.22       4.9  T
   7    -44.1352751 -0.161764E-06  0.265E-03    2.22       8.2  T
   8    -44.1352752 -0.485834E-07  0.122E-03    2.22      17.9  T
   9    -44.1352752 -0.173765E-07  0.462E-04    2.22      47.3  T
  10    -44.1352752 -0.292193E-08  0.207E-04    2.22     105.4  T

   *** convergence criteria satisfied after 10 iterations ***

         #    Occupation            Energy/Eh            Energy/eV
      -------------------------------------------------------------
         1        2.0000           -0.7905200             -21.5111
       ...           ...                  ...                  ...
        32        2.0000           -0.4764761             -12.9656
        33        2.0000           -0.4626616             -12.5897
        34        2.0000           -0.4572726             -12.4430
        35        2.0000           -0.4494614             -12.2305
        36        2.0000           -0.4494499             -12.2302
        37        1.9968           -0.4287987             -11.6682
        38        1.0032           -0.4179021             -11.3717 (HOMO)
        39                         -0.3363560              -9.1527 (LUMO)
        40                         -0.2891047              -7.8669
        41                         -0.2650218              -7.2116
        42                         -0.2435416              -6.6271
        43                         -0.2405966              -6.5470
       ...                                ...                  ...
        66                          1.1346370              30.8750
      -------------------------------------------------------------
                  HL-Gap            0.0815461 Eh            2.2190 eV
             Fermi-level           -0.4002397 Eh          -10.8911 eV

 SCC (total)                   0 d,  0 h,  0 min,  0.042 sec
 SCC setup                      ...        0 min,  0.001 sec (  1.206%)
 Dispersion                     ...        0 min,  0.000 sec (  1.051%)
 classical contributions        ...        0 min,  0.000 sec (  0.246%)
 integral evaluation            ...        0 min,  0.003 sec (  6.259%)
 iterations                     ...        0 min,  0.033 sec ( 78.884%)
 molecular gradient             ...        0 min,  0.005 sec ( 11.016%)
 printout                       ...        0 min,  0.000 sec (  1.142%)

         :::::::::::::::::::::::::::::::::::::::::::::::::::::
         ::                     SUMMARY                     ::
         :::::::::::::::::::::::::::::::::::::::::::::::::::::
         :: total energy             -43.541882117618 Eh    ::
         :: gradient norm              0.069627930628 Eh/a0 ::
         :: HOMO-LUMO gap              2.218981842409 eV    ::
         ::.................................................::
         :: SCC energy               -44.135275203209 Eh    ::
         :: -> isotropic ES            0.103471309142 Eh    ::
         :: -> anisotropic ES          0.001978745164 Eh    ::
         :: -> anisotropic XC          0.021662914139 Eh    ::
         :: -> dispersion             -0.018906826352 Eh    ::
         :: repulsion energy           0.593333344221 Eh    ::
         :: add. restraining           0.000000000000 Eh    ::
         :: total charge               0.000000000002 e     ::
         :::::::::::::::::::::::::::::::::::::::::::::::::::::


Property printout bound to 'properties.out'

           -------------------------------------------------
          | TOTAL ENERGY              -43.541882117618 Eh   |
          | GRADIENT NORM               0.069627930628 Eh/α |
          | HOMO-LUMO GAP               2.218981842409 eV   |
           -------------------------------------------------

------------------------------------------------------------------------
 * finished run on 2025/01/14 at 21:08:37.946     
------------------------------------------------------------------------
 total:
 * wall-time:     0 d,  0 h,  0 min,  3.220 sec
 *  cpu-time:     0 d,  0 h,  0 min,  1.673 sec
 * ratio c/w:     0.520 speedup
 SCF:
 * wall-time:     0 d,  0 h,  0 min,  0.042 sec
 *  cpu-time:     0 d,  0 h,  0 min,  0.160 sec
 * ratio c/w:     3.792 speedup


-------------------------   --------------------
FINAL SINGLE POINT ENERGY       -43.541882117620
-------------------------   --------------------

------------------------------------------------------------------------------
                         ORCA GEOMETRY RELAXATION STEP
------------------------------------------------------------------------------

Reading the OPT-File                    .... done
Getting information on internals        .... done
Copying old internal coords+grads       .... done
Making the new internal coordinates     .... (new redundants).... done
Validating the new internal coordinates .... (new redundants).... done
Calculating the B-matrix                .... done
Calculating the G,G- and P matrices     .... done
Transforming gradient to internals      .... done
Projecting the internal gradient        .... done
Number of atoms                         ....  21
Number of internal coordinates          .... 179
Current Energy                          ....   -43.541882118 Eh
Current gradient norm                   ....     0.069627931 Eh/bohr
Maximum allowed component of the step   ....  0.300
Current trust radius                    ....  0.300
Updating the Hessian (BFGS)             .... done
Forming the augmented Hessian           .... done
Diagonalizing the augmented Hessian     .... done
Last element of RFO vector              ....  0.986301619
Lowest eigenvalues of augmented Hessian:
 -0.005123238  0.000151511  0.002593474  0.005176075  0.014455325
Length of the computed step             ....  0.167242817
The final length of the internal step   ....  0.167242817
Converting the step to cartesian space:
 Initial RMS(Int)=    0.0125003151
Transforming coordinates:
 Iter   0:  RMS(Cart)=    0.0185794402 RMS(Int)=    0.6641442627
 Iter   1:  RMS(Cart)=    0.0001450327 RMS(Int)=    0.0001023917
 Iter   2:  RMS(Cart)=    0.0000032966 RMS(Int)=    0.0000024202
 Iter   3:  RMS(Cart)=    0.0000013399 RMS(Int)=    0.0000007848
 Iter   4:  RMS(Cart)=    0.0000006654 RMS(Int)=    0.0000003889
 Iter   5:  RMS(Cart)=    0.0000003300 RMS(Int)=    0.0000001929
 Iter   6:  RMS(Cart)=    0.0000001637 RMS(Int)=    0.0000000957
 Iter   7:  RMS(Cart)=    0.0000000812 RMS(Int)=    0.0000000474
done
Storing new coordinates                 .... done

                                .--------------------.
          ----------------------|Geometry convergence|-------------------------
          Item                value                   Tolerance       Converged
          ---------------------------------------------------------------------
          Energy change      -0.0120885625            0.0000050000      NO
          RMS gradient        0.0030277990            0.0001000000      NO
          MAX gradient        0.0201000913            0.0003000000      NO
          RMS step            0.0125003151            0.0020000000      NO
          MAX step            0.0405921114            0.0040000000      NO
          ........................................................
          Max(Bonds)      0.0215      Max(Angles)    1.32
          Max(Dihed)        1.92      Max(Improp)    0.00
          ---------------------------------------------------------------------

The optimization has not yet converged - more geometry cycles are needed


    ---------------------------------------------------------------------------
                         Redundant Internal Coordinates
                            (Angstroem and degrees)

        Definition                    Value    dE/dq     Step     New-Value
    ----------------------------------------------------------------------------
     1. B(C   1,N   0)                1.1459  0.000239 -0.0014    1.1445   
     2. B(C   2,C   1)                1.4143  0.002147 -0.0035    1.4107   
     3. B(C   3,C   2)                1.3534 -0.008285  0.0122    1.3656   
     4. B(C   4,C   3)                1.4302  0.011733 -0.0174    1.4127   
     5. B(C   5,C   4)                1.4039 -0.008947  0.0125    1.4164   
     6. B(C   6,C   5)                1.3727  0.012114 -0.0186    1.3542   
     7. B(C   7,C   6)                1.4344 -0.013413  0.0208    1.4552   
     8. B(O   8,C   7)                1.2508  0.020100 -0.0208    1.2300   
     9. B(C   9,C   7)                1.4302 -0.012453  0.0191    1.4493   
    10. B(C  10,C   9)                1.3755  0.005391 -0.0092    1.3663   
    11. B(C  10,C   4)                1.4056 -0.011205  0.0153    1.4209   
    12. B(O  11,C  10)                1.3807  0.007870 -0.0215    1.3592   
    13. B(C  12,O  11)                1.3653  0.003308 -0.0111    1.3542   
    14. B(C  12,C   2)                1.4771 -0.000304  0.0013    1.4784   
    15. B(O  13,C  12)                1.2057  0.007812 -0.0085    1.1971   
    16. B(H  14,C   3)                1.0816  0.000403 -0.0011    1.0805   
    17. B(H  15,C   5)                1.0787 -0.000122 -0.0001    1.0786   
    18. B(H  16,C   6)                1.0823  0.001447 -0.0037    1.0786   
    19. B(H  17,C   9)                1.0814  0.001552 -0.0037    1.0776   
    20. B(O  18,O  13)                5.2933  0.002160 -0.0174    5.2760   
    21. B(O  18,C  12)                5.2844  0.000018 -0.0034    5.2811   
    22. B(O  18,O  11)                4.9943 -0.001954  0.0056    4.9999   
    23. B(O  18,C  10)                5.5040  0.000639 -0.0037    5.5003   
    24. B(O  18,H  17)                5.4687 -0.000550 -0.0025    5.4662   
    25. B(H  19,O  18)                0.9617  0.001149 -0.0023    0.9594   
    26. B(H  20,O  13)                4.5683  0.000593 -0.0127    4.5556   
    27. B(H  20,C  12)                4.7303 -0.000433  0.0007    4.7310   
    28. B(H  20,O  11)                4.6129 -0.001875  0.0051    4.6180   
    29. B(H  20,C  10)                5.3369  0.002051 -0.0060    5.3309   
    30. B(H  20,C   2)                5.6074 -0.000466  0.0024    5.6098   
    31. B(H  20,O  18)                0.9622  0.000665 -0.0024    0.9598   
    32. B(H  20,H  17)                5.4607  0.001456 -0.0146    5.4461   
    33. L(N   0,C   1,C   2,C   3, 2) 180.01 -0.000054    0.01    180.02   
    34. L(N   0,C   1,C   2,C   3, 1) 177.06 -0.001230    0.23    177.29   
    35. A(C   1,C   2,C  12)          117.79  0.001683   -0.30    117.49   
    36. A(C   1,C   2,C   3)          120.64 -0.001480    0.40    121.04   
    37. A(C   3,C   2,C  12)          121.57 -0.000203   -0.10    121.46   
    38. A(C   2,C   3,H  14)          122.20  0.001121   -0.39    121.80   
    39. A(C   4,C   3,H  14)          118.29 -0.002241    0.45    118.74   
    40. A(C   2,C   3,C   4)          119.52  0.001121   -0.06    119.45   
    41. A(C   3,C   4,C  10)          118.59  0.000360   -0.31    118.28   
    42. A(C   5,C   4,C  10)          119.09 -0.000359    0.10    119.19   
    43. A(C   3,C   4,C   5)          122.32 -0.000000    0.21    122.53   
    44. A(C   4,C   5,H  15)          121.15  0.005581   -1.32    119.83   
    45. A(C   6,C   5,H  15)          118.87 -0.002296    0.68    119.55   
    46. A(C   4,C   5,C   6)          119.98 -0.003285    0.63    120.62   
    47. A(C   5,C   6,H  16)          119.25 -0.003858    0.96    120.21   
    48. A(C   7,C   6,H  16)          118.31  0.001145   -0.30    118.01   
    49. A(C   5,C   6,C   7)          122.44  0.002713   -0.66    121.78   
    50. A(O   8,C   7,C   9)          122.03  0.000834   -0.22    121.82   
    51. A(C   6,C   7,O   8)          121.84  0.000847   -0.22    121.63   
    52. A(C   6,C   7,C   9)          116.12 -0.001681    0.43    116.56   
    53. A(C  10,C   9,H  17)          119.73 -0.001797    0.32    120.05   
    54. A(C   7,C   9,H  17)          119.21  0.000332    0.03    119.24   
    55. A(C   7,C   9,C  10)          121.06  0.001465   -0.35    120.71   
    56. A(C   4,C  10,O  11)          121.40 -0.000647    0.03    121.43   
    57. A(C   4,C  10,C   9)          121.30  0.001148   -0.15    121.15   
    58. A(C   9,C  10,O  18)           91.34 -0.000211   -0.01     91.33   
[...]
   118. D(O  18,C  10,C   9,H  17)    -72.02  0.000021   -0.13    -72.15   
   119. D(O  18,C  10,C   9,C   7)    107.83  0.000010   -0.10    107.73   
   120. D(O  11,C  10,C   9,H  17)      0.30  0.000011   -0.04      0.26   
   121. D(O  11,C  10,C   9,C   7)   -179.86  0.000000   -0.01   -179.87   
   122. D(C   4,C  10,C   9,H  17)   -179.88  0.000012   -0.03   -179.91   
   123. D(C  12,O  11,C  10,C   4)      1.66  0.000010    0.02      1.69   
   124. D(O  18,O  11,C  10,C   4)     54.68  0.000005    0.06     54.75   
   125. D(C  12,O  11,C  10,O  18)    -53.02  0.000005   -0.04    -53.06   
   126. D(C  12,O  11,C  10,C   9)   -178.52  0.000011    0.03   -178.48   
   127. D(O  18,O  11,C  10,C   9)   -125.50  0.000006    0.07   -125.42   
   128. D(O  18,C  12,O  11,C  10)     78.19  0.000012   -0.08     78.12   
   129. D(O  13,C  12,O  11,O  18)     99.73 -0.000016   -0.06     99.67   
   130. D(O  13,C  12,O  11,C  10)    177.92 -0.000004   -0.14    177.78   
   131. D(C   2,C  12,O  11,O  18)    -80.27 -0.000021   -0.01    -80.28   
   132. D(C   2,C  12,O  11,C  10)     -2.08 -0.000009   -0.09     -2.16   
   133. D(O  18,C  12,C   2,C   3)    -97.10 -0.000011    0.20    -96.90   
   134. D(O  13,C  12,C   2,C   1)     -0.14 -0.000005    0.13     -0.01   
   135. D(O  11,C  12,C   2,C   3)      1.34  0.000004    0.10      1.43   
   136. D(O  11,C  12,C   2,C   1)    179.86  0.000001    0.07    179.93   
   137. D(O  18,C  12,C   2,C   1)     81.42 -0.000014    0.18     81.60   
   138. D(O  13,C  12,C   2,C   3)   -178.66 -0.000001    0.15   -178.51   
   139. D(O  18,O  13,C  12,O  11)   -106.81 -0.000006    0.13   -106.68   
   140. D(O  18,O  13,C  12,C   2)     73.18 -0.000000    0.08     73.26   
   141. D(O  11,O  18,C  10,C   9)    100.91 -0.000018    0.11    101.03   
   142. D(O  11,O  18,C  10,C   4)   -134.79 -0.000021    0.06   -134.74   
   143. D(H  20,O  18,C  10,O  11)    -13.01  0.000011   -0.28    -13.29   
   144. D(H  20,O  18,C  10,C   9)     87.91 -0.000007   -0.17     87.74   
   145. D(H  20,O  18,C  10,C   4)   -147.80 -0.000010   -0.23   -148.03   
   146. D(H  19,O  18,C  10,O  11)    159.87  0.000002    0.13    160.00   
   147. D(H  19,O  18,C  10,C   9)    -99.22 -0.000016    0.24    -98.98   
   148. D(C  12,O  18,C  10,C   4)   -102.75 -0.000007    0.03   -102.72   
   149. D(H  19,O  18,C  10,C   4)     25.07 -0.000019    0.19     25.26   
   150. D(O  11,O  18,O  13,C  12)     31.89 -0.000017    0.04     31.93   
   151. D(C  10,O  18,O  13,C  12)     22.34 -0.000016    0.05     22.39   
   152. D(H  19,O  18,O  13,C  12)   -130.79 -0.000023   -0.10   -130.89   
   153. D(O  13,O  18,C  12,O  11)    120.24  0.000005   -0.02    120.23   
   154. D(O  13,O  18,C  12,C   2)   -125.67  0.000036   -0.00   -125.67   
   155. D(O  11,O  18,C  12,C   2)    114.09  0.000031    0.02    114.10   
   156. D(C  10,O  18,C  12,O  13)   -148.06 -0.000011    0.05   -148.02   
   157. D(C  10,O  18,C  12,O  11)    -27.82 -0.000006    0.03    -27.79   
   158. D(C  10,O  18,C  12,C   2)     86.27  0.000025    0.05     86.31   
   159. D(H  20,O  18,C  12,O  13)    -14.39 -0.000016   -0.20    -14.59   
   160. D(H  20,O  18,C  12,O  11)    105.85 -0.000011   -0.22    105.63   
   161. D(H  20,O  18,C  12,C   2)   -140.06  0.000020   -0.20   -140.26   
   162. D(H  19,O  18,C  12,O  13)     80.94 -0.000007   -0.12     80.82   
   163. D(H  19,O  18,C  12,O  11)   -158.81 -0.000002   -0.14   -158.95   
   164. D(H  19,O  18,C  12,C   2)    -44.72  0.000029   -0.12    -44.85   
   165. D(O  13,O  18,O  11,C  12)    -32.04 -0.000013    0.01    -32.03   
   166. D(O  13,O  18,O  11,C  10)   -155.66  0.000009   -0.05   -155.71   
   167. D(C  12,O  18,O  11,C  10)   -123.62  0.000022   -0.07   -123.68   
   168. D(C  10,O  18,O  11,C  12)    123.62 -0.000022    0.07    123.68   
   169. D(H  20,O  18,O  11,C  12)    -69.31 -0.000012   -0.22    -69.53   
   170. D(H  20,O  18,O  11,C  10)    167.08  0.000010   -0.29    166.79   
   171. D(H  19,O  18,O  11,C  12)     66.83 -0.000008   -0.10     66.74   
   172. D(O  11,O  18,C  12,O  13)   -120.24 -0.000005    0.02   -120.23   
   173. D(H  19,O  18,O  11,C  10)    -56.78  0.000013   -0.16    -56.95   
   174. D(O  13,O  18,C  10,O  11)     17.97  0.000010   -0.04     17.93   
   175. D(O  13,O  18,C  10,C   9)    118.89 -0.000008    0.07    118.96   
   176. D(H  20,O  18,O  13,C  12)    162.30 -0.000023   -0.24    162.06   
   177. D(O  13,O  18,C  10,C   4)   -116.82 -0.000011    0.02   -116.80   
   178. D(C  12,O  18,C  10,O  11)     32.05  0.000014   -0.03     32.02   
   179. D(C  12,O  18,C  10,C   9)    132.96 -0.000004    0.08    133.05   
    ----------------------------------------------------------------------------
                 *******************************************************
                 *** FINAL ENERGY EVALUATION AT THE STATIONARY POINT ***
                 ***               (AFTER   79 CYCLES)               ***
                 *******************************************************
---------------------------------
CARTESIAN COORDINATES (ANGSTROEM)
---------------------------------
  N     0.033991   -4.584423    0.956924
  C    -0.037740   -3.440357    0.921456
  C    -0.101616   -2.036323    0.857161
  C     0.540587   -1.337883   -0.131375
  C     0.480968    0.066205   -0.152624
  C     1.132275    0.853349   -1.139607
  C     1.054095    2.202778   -1.122877
  C     0.298150    2.917662   -0.093099
  O     0.223674    4.142639   -0.076036
  C    -0.357116    2.088136    0.904476
  C    -0.264091    0.724982    0.868626
  O    -0.903337    0.014976    1.829806
  C    -0.858124   -1.339842    1.913805
  O    -1.423509   -1.882786    2.824429
  H     1.103630   -1.862262   -0.891271
  H     1.694193    0.337223   -1.904930
  H     1.545973    2.808987   -1.868187
  H    -0.922388    2.576722    1.682567
  O     1.638369   -1.850882    3.054513
  H     2.377859   -2.437824    3.230211
  H     0.992951   -2.008907    3.749766

----------------------------
CARTESIAN COORDINATES (A.U.)
----------------------------
  NO LB    ZA    FRAG    MASS        X           Y           Z
   0 N   7.0000    0    14.007    0.064233   -8.663304    1.808324
   1 C   6.0000    0    12.011   -0.071318   -6.501332    1.741300
   2 C   6.0000    0    12.011   -0.192026   -3.848093    1.619799
   3 C   6.0000    0    12.011    1.021561   -2.528233   -0.248264
   4 C   6.0000    0    12.011    0.908898    0.125109   -0.288417
   5 C   6.0000    0    12.011    2.139689    1.612596   -2.153545
   6 C   6.0000    0    12.011    1.991950    4.162647   -2.121930
   7 C   6.0000    0    12.011    0.563422    5.513582   -0.175932
   8 O   8.0000    0    15.999    0.422682    7.828453   -0.143687
   9 C   6.0000    0    12.011   -0.674852    3.946006    1.709211
  10 C   6.0000    0    12.011   -0.499060    1.370018    1.641465
  11 O   8.0000    0    15.999   -1.707059    0.028301    3.457832
  12 C   6.0000    0    12.011   -1.621620   -2.531935    3.616567
  13 O   8.0000    0    15.999   -2.690041   -3.557950    5.337398
  14 H   1.0000    0     1.008    2.085558   -3.519164   -1.684259
  15 H   1.0000    0     1.008    3.201561    0.637259   -3.599796
  16 H   1.0000    0     1.008    2.921465    5.308216   -3.530362
  17 H   1.0000    0     1.008   -1.743060    4.869298    3.179591
  18 O   8.0000    0    15.999    3.096069   -3.497659    5.772193
  19 H   1.0000    0     1.008    4.493502   -4.606821    6.104213
  20 H   1.0000    0     1.008    1.876405   -3.796284    7.086030

      -----------------------------------------------------------      
     |                   =====================                   |     
     |                           x T B                           |     
     |                   =====================                   |     
     |                         S. Grimme                         |     
     |          Mulliken Center for Theoretical Chemistry        |     
     |                    University of Bonn                     |     
      -----------------------------------------------------------      

   * xtb version 6.6.1 (8d0f1dd) compiled by 'stahn@M-Bot' on 2023-08-01

   xtb is free software: you can redistribute it and/or modify it under
   the terms of the GNU Lesser General Public License as published by
   the Free Software Foundation, either version 3 of the License, or
   (at your option) any later version.
   
   xtb is distributed in the hope that it will be useful,
   but WITHOUT ANY WARRANTY; without even the implied warranty of
   MERCHANTABILITY or FITNESS FOR A PARTICULAR PURPOSE.  See the
   GNU Lesser General Public License for more details.
   
   Cite this work as:
   * C. Bannwarth, E. Caldeweyher, S. Ehlert, A. Hansen, P. Pracht,
     J. Seibert, S. Spicher, S. Grimme, WIREs Comput. Mol. Sci., 2020, 11,
     e01493. DOI: 10.1002/wcms.1493
   
   for GFN2-xTB:
   * C. Bannwarth, S. Ehlert and S. Grimme., J. Chem. Theory Comput., 2019,
     15, 1652-1671. DOI: 10.1021/acs.jctc.8b01176
   for GFN1-xTB:
   * S. Grimme, C. Bannwarth, P. Shushkov, J. Chem. Theory Comput., 2017,
     13, 1989-2009. DOI: 10.1021/acs.jctc.7b00118
   for GFN0-xTB:
   * P. Pracht, E. Caldeweyher, S. Ehlert, S. Grimme, ChemRxiv, 2019, preprint.
     DOI: 10.26434/chemrxiv.8326202.v1
   for GFN-FF:
   * S. Spicher and S. Grimme, Angew. Chem. Int. Ed., 2020, 59, 15665-15673.
     DOI: 10.1002/anie.202004239
   
   for ALPB and GBSA implicit solvation:
   * S. Ehlert, M. Stahn, S. Spicher, S. Grimme, J. Chem. Theory Comput.,
     2021, 17, 4250-4261. DOI: 10.1021/acs.jctc.1c00471
   
   for DFT-D4:
   * E. Caldeweyher, C. Bannwarth and S. Grimme, J. Chem. Phys., 2017,
     147, 034112. DOI: 10.1063/1.4993215
   * E. Caldeweyher, S. Ehlert, A. Hansen, H. Neugebauer, S. Spicher,
     C. Bannwarth and S. Grimme, J. Chem. Phys., 2019, 150, 154122.
     DOI: 10.1063/1.5090222
   * E. Caldeweyher, J.-M. Mewes, S. Ehlert and S. Grimme, Phys. Chem. Chem. Phys.
     2020, 22, 8499-8512. DOI: 10.1039/D0CP00502A
   
   for sTDA-xTB:
   * S. Grimme and C. Bannwarth, J. Chem. Phys., 2016, 145, 054103.
     DOI: 10.1063/1.4959605
   
   in the mass-spec context:
   * V. Asgeirsson, C. Bauer and S. Grimme, Chem. Sci., 2017, 8, 4879.
     DOI: 10.1039/c7sc00601b
   * J. Koopman and S. Grimme, ACS Omega 2019, 4, 12, 15120-15133.
     DOI: 10.1021/acsomega.9b02011
   
   for metadynamics refer to:
   * S. Grimme, J. Chem. Theory Comput., 2019, 155, 2847-2862
     DOI: 10.1021/acs.jctc.9b00143
   
   for SPH calculations refer to:
   * S. Spicher and S. Grimme, J. Chem. Theory Comput., 2021, 17, 1701-1714
     DOI: 10.1021/acs.jctc.0c01306
   
   with help from (in alphabetical order)
   P. Atkinson, C. Bannwarth, F. Bohle, G. Brandenburg, E. Caldeweyher
   M. Checinski, S. Dohm, S. Ehlert, S. Ehrlich, I. Gerasimov, C. Hölzer
   A. Katbashev, J. Koopman, C. Lavigne, S. Lehtola, F. März, M. Müller,
   F. Musil, H. Neugebauer, J. Pisarek, C. Plett, P. Pracht, F. Pultar,
   J. Seibert, P. Shushkov, S. Spicher, M. Stahn, M. Steiner, T. Strunk,
   J. Stückrath, T. Rose, and J. Unsleber
   
 * started run on 2025/01/14 at 21:20:22.469     

           -------------------------------------------------
          |                Calculation Setup                |
           -------------------------------------------------

          program call               : /home/jang/cal_tmp/10_orca/orca_5_0_4_linux_x86-64_shared_openmpi411/otool_xtb /home/jang/cal_tmp/10_orca/Gen_chromophore/Gen_molecular_pairs_cal/mol_2_9.xyz/input_XTB.xyz --grad -c 0 -u 0 -P 4 --namespace /home/jang/cal_tmp/10_orca/Gen_chromophore/Gen_molecular_pairs_cal/mol_2_9.xyz/input --input /home/jang/cal_tmp/10_orca/Gen_chromophore/Gen_molecular_pairs_cal/mol_2_9.xyz/input_XTB.input.tmp --acc 1.000000
          hostname                   : node02
          calculation namespace      : /home/jang/cal_tmp/10_orca/Gen_chromophore/Gen_molecular_pairs_cal/mol_2_9.xyz/input
          coordinate file            : /home/jang/cal_tmp/10_orca/Gen_chromophore/Gen_molecular_pairs_cal/mol_2_9.xyz/input_XTB.xyz
          omp threads                :                     4

   ID    Z sym.   atoms
    1    7 N      1
    2    6 C      2-8, 10, 11, 13
    3    8 O      9, 12, 14, 19
    4    1 H      15-18, 20, 21

molecular fragmentation (1/2 indicates fragments):
111111111111111111222
# atoms in fragment 1/2:    18     3
 fragment masses (1/2) :      186.14       18.02
CMA distance (Bohr)    :   6.603
constraining FC (au)   :  0.0500

           -------------------------------------------------
          |                 G F N 2 - x T B                 |
           -------------------------------------------------

        Reference                      10.1021/acs.jctc.8b01176
      * Hamiltonian:
        H0-scaling (s, p, d)           1.850000    2.230000    2.230000
        zeta-weighting                 0.500000
      * Dispersion:
        s8                             2.700000
        a1                             0.520000
        a2                             5.000000
        s9                             5.000000
      * Repulsion:
        kExp                           1.500000    1.000000
        rExp                           1.000000
      * Coulomb:
        alpha                          2.000000
        third order                    shell-resolved
        anisotropic                    true
        a3                             3.000000
        a5                             4.000000
        cn-shift                       1.200000
        cn-exp                         4.000000
        max-rad                        5.000000

q/qsh data taken from xtbrestart
CAMM data taken from xtbrestart

          ...................................................
          :                      SETUP                      :
          :.................................................:
          :  # basis functions                  66          :
          :  # atomic orbitals                  66          :
          :  # shells                           36          :
          :  # electrons                        75          :
          :  max. iterations                   250          :
          :  Hamiltonian                  GFN2-xTB          :
          :  restarted?                       true          :
          :  GBSA solvation                  false          :
          :  PC potential                    false          :
          :  electronic temp.          300.0000000     K    :
          :  accuracy                    1.0000000          :
          :  -> integral cutoff          0.2500000E+02      :
          :  -> integral neglect         0.1000000E-07      :
          :  -> SCF convergence          0.1000000E-05 Eh   :
          :  -> wf. convergence          0.1000000E-03 e    :
          :  Broyden damping             0.4000000          :
          ...................................................

 iter      E             dE          RMSdq      gap      omega  full diag
   1    -44.1511145 -0.441511E+02  0.865E-03    2.23       0.0  T
   2    -44.1511145 -0.134353E-07  0.514E-03    2.23       4.2  T
   3    -44.1511144  0.137012E-06  0.276E-03    2.23       7.9  T
   4    -44.1511145 -0.157139E-06  0.335E-04    2.23      65.1  T
   5    -44.1511145 -0.363585E-09  0.200E-04    2.23     109.3  T

   *** convergence criteria satisfied after 5 iterations ***

         #    Occupation            Energy/Eh            Energy/eV
      -------------------------------------------------------------
         1        2.0000           -0.7847465             -21.3540
       ...           ...                  ...                  ...
        32        2.0000           -0.4701107             -12.7924
        33        2.0000           -0.4647430             -12.6463
        34        2.0000           -0.4557504             -12.4016
        35        2.0000           -0.4485787             -12.2064
        36        2.0000           -0.4417604             -12.0209
        37        1.9991           -0.4207374             -11.4488
        38        1.0009           -0.4074203             -11.0865 (HOMO)
        39                         -0.3254488              -8.8559 (LUMO)
        40                         -0.2783632              -7.5746
        41                         -0.2527261              -6.8770
        42                         -0.2360314              -6.4227
        43                         -0.2321403              -6.3169
       ...                                ...                  ...
        66                          1.1464372              31.1961
      -------------------------------------------------------------
                  HL-Gap            0.0819715 Eh            2.2306 eV
             Fermi-level           -0.3902567 Eh          -10.6194 eV

 SCC (total)                   0 d,  0 h,  0 min,  0.027 sec
 SCC setup                      ...        0 min,  0.000 sec (  1.083%)
 Dispersion                     ...        0 min,  0.000 sec (  1.216%)
 classical contributions        ...        0 min,  0.000 sec (  0.187%)
 integral evaluation            ...        0 min,  0.002 sec (  8.184%)
 iterations                     ...        0 min,  0.020 sec ( 71.796%)
 molecular gradient             ...        0 min,  0.004 sec ( 15.736%)
 printout                       ...        0 min,  0.000 sec (  1.532%)

         :::::::::::::::::::::::::::::::::::::::::::::::::::::
         ::                     SUMMARY                     ::
         :::::::::::::::::::::::::::::::::::::::::::::::::::::
         :: total energy             -43.553722894130 Eh    ::
         :: gradient norm              0.000561580785 Eh/a0 ::
         :: HOMO-LUMO gap              2.230558213670 eV    ::
         ::.................................................::
         :: SCC energy               -44.151114538727 Eh    ::
         :: -> isotropic ES            0.103318051714 Eh    ::
         :: -> anisotropic ES         -0.000906928128 Eh    ::
         :: -> anisotropic XC          0.021307593486 Eh    ::
         :: -> dispersion             -0.021306001662 Eh    ::
         :: repulsion energy           0.597314012864 Eh    ::
         :: add. restraining           0.000000000000 Eh    ::
         :: total charge               0.000000000000 e     ::
         :::::::::::::::::::::::::::::::::::::::::::::::::::::


Property printout bound to 'properties.out'

           -------------------------------------------------
          | TOTAL ENERGY              -43.553722894130 Eh   |
          | GRADIENT NORM               0.000561580785 Eh/α |
          | HOMO-LUMO GAP               2.230558213670 eV   |
           -------------------------------------------------

------------------------------------------------------------------------
 * finished run on 2025/01/14 at 21:20:23.419     
------------------------------------------------------------------------
 total:
 * wall-time:     0 d,  0 h,  0 min,  0.948 sec
 *  cpu-time:     0 d,  0 h,  0 min,  1.315 sec
 * ratio c/w:     1.386 speedup
 SCF:
 * wall-time:     0 d,  0 h,  0 min,  0.027 sec
 *  cpu-time:     0 d,  0 h,  0 min,  0.105 sec
 * ratio c/w:     3.829 speedup


-------------------------   --------------------
FINAL SINGLE POINT ENERGY       -43.553722894130
-------------------------   --------------------

                                *** OPTIMIZATION RUN DONE ***

Timings for individual modules:

Sum of individual times         ...      190.375 sec (=   3.173 min)
Geometry relaxation             ...       60.468 sec (=   1.008 min)  31.8 %
XTB module                      ...      129.907 sec (=   2.165 min)  68.2 %
                             ****ORCA TERMINATED NORMALLY****
TOTAL RUN TIME: 0 days 0 hours 12 minutes 23 seconds 556 msec
